Name,ID,SMILES,inchi,LogS
Cyproheptadine,,CN1CCC(=C2C3=C(C=CC=C3)C=CC3=C2C=CC=C3)CC1,JJCFRYNCJDLXIK-UHFFFAOYSA-N,-3.09
"N,N-diethyl-2-(9H-[1,2,4]triazino[6,5-b]indol-3-ylsulfanyl)ethanamine",,CCN(CC)CCSC1=NC2=C(N=N1)NC1=C2C=CC=C1,QIVOPJNEUAMBDB-UHFFFAOYSA-N,-3.09
oxytetracycline,,OC1=C(C(O)=C(C([C@@](C(C(C(N)=O)=C(O)[C@H]2N(C)C)=O)(O)[C@@]2([H])[C@H]3O)=O)[C@@]3([H])[C@@]4(O)C)C4=CC=C1,JLGOGFIHBRJQHY-PXOLEDIWSA-N,-3.09
4-chloro-2-nitrophenol,,Oc1ccc(Cl)cc1[N+]([O-])=O,NWSIFTLPLKCTSX-UHFFFAOYSA-N,-3.0902
santonin,,C[C@H]1[C@@H]2CC[C@@]3(C)C=CC(=O)C(=C3[C@H]2OC1=O)C,XJHDMGJURBVLLE-BOCCBSBMSA-N,-3.0905
thiometon,,CCSCCS[P](=S)(OC)OC,OPASCBHCTNRLRM-UHFFFAOYSA-N,-3.0905
fenoxaprop-p,,CC(Oc1ccc(Oc2oc3cc(Cl)ccc3n2)cc1)C(O)=O,MPPOHAUSNPTFAJ-UHFFFAOYSA-N,-3.092
"3-pyridinecarboxylic acid, octyl ester",,CCCCCCCCOC(=O)c1cccnc1,TYBQVEHLLOHMLT-UHFFFAOYSA-N,-3.0929
nicotinanilide,,O=C(Nc1ccccc1)c2cccnc2,NYQXIOZBHWFCBU-UHFFFAOYSA-N,-3.093
Dapsone,CAS80-08-0,Nc1ccc(S(=O)(=O)c2ccc(N)cc2)cc1,MQJKPEGWNLWLTK-UHFFFAOYSA-N,-3.09
"benzenemethanol, 3,4,5-trichloro-",,OCc1cc(Cl)c(Cl)c(Cl)c1,HZKGTRUEBFRMNO-UHFFFAOYSA-N,-3.0948
"3-pyridinecarboxylic acid, nonyl ester",,CCCCCCCCCOC(=O)c1cccnc1,CPDDCIYPNIRWBG-UHFFFAOYSA-N,-3.0958
cyclohexylmethyl-dimethoxysilane,,CO[SiH](CC1CCCCC1)OC,XRLIOAUFFCHSIC-UHFFFAOYSA-N,-3.095972536
"1,1-dichloro-1,2,2,2-tetrafluoroethane",,FC(F)(F)C(F)(Cl)Cl,BAMUEXIPKSRTBS-UHFFFAOYSA-N,-3.0961
4-[2-(4-hydroxycyclohexyl)propan-2-yl]cyclohexan-1-ol,,CC(C)(C1CCC(O)CC1)C2CCC(O)CC2,CDBAMNGURPMUTG-UHFFFAOYSA-N,-3.097609749
Nitrofurantoin,CAS67-20-9,O=C1CN(/N=C/c2ccc([N+](=O)[O-])o2)C(=O)N1,NXFQHRVNIOXGAQ-YCRREMRBSA-N,-3.1
Chlorthalidone,CAS77-36-1,NS(=O)(=O)c1cc(C2(O)NC(=O)c3ccccc32)ccc1Cl,JIVPVXMEBJLZRO-UHFFFAOYSA-N,-3.1
methidathion,,COC1=NN(CS[P](=S)(OC)OC)C(=O)S1,MEBQXILRKZHVCX-UHFFFAOYSA-N,-3.1
"2,3,4-trichlorophenoxyacetic  acid",,OC(=O)COC1=C(Cl)C(=C(Cl)C=C1)Cl,QMSFHWZMMPPKIR-UHFFFAOYSA-N,-3.1
s-valeroyloxymethyl-6-mercaptopurine;  s-pentanoyloxymethyl-6-mercaptopurine,,CCCCC(=O)OCSC1=NC=NC2=C1N=C[NH]2,SFTFTJMAUOPCTA-UHFFFAOYSA-N,-3.1
cyclohexane,,C1CCCCC1,XDTMQSROBMDMFD-UHFFFAOYSA-N,-3.1
"(5E)-5-(Diphenylhydrazono)-1,2,3,4-pentanetetrol",,OCC(O)C(O)C(O)C=NN(C1=CC=CC=C1)C1=CC=CC=C1,IHTGGLAKTYJQIY-UHFFFAOYSA-N,-3.1
N-(N-Methylcarbamimidoyl)-2-naphthalenesulfonamide,,CNC(=N)NS(=O)(=O)C1=CC2=C(C=CC=C2)C=C1,HNNWFOKEOYHSCW-UHFFFAOYSA-N,-3.1
"2,2-dihydroxy-N,N'-bis(4-methylphenyl)propanediamide",,CC1=CC=C(NC(=O)C(O)(O)C(=O)NC2=CC=C(C)C=C2)C=C1,YHKFVRLNISKKFY-UHFFFAOYSA-N,-3.1
"N-Hydroxy-3,5-dimethoxy-n-phenylbenzamide",,COC1=CC(OC)=CC(C(=O)N(O)C2=CC=CC=C2)=C1,SSSTWVDALJCPEV-UHFFFAOYSA-N,-3.1
hydroxy-[1-[hydroxy(oxo)azaniumyl]oxyhexan-2-yloxy]-oxoazanium,,CCCCC(CO[N+](=O)O)O[N+](=O)O,NUSZPHANRVUCGW-UHFFFAOYSA-N,-3.1
"2,3,4,6-Tetrachlorophenol",,Oc1c(Cl)cc(Cl)c(Cl)c1Cl,VGVRPFIJEJYOFN-UHFFFAOYSA-N,-3.1
o-dinitrobenzene,,[O-][N+](=O)c1ccccc1[N+]([O-])=O,IZUKQUVSCNEFMJ-UHFFFAOYSA-N,-3.1017
"benzene, 1,3-dichloro-2-methoxy-",,COc1c(Cl)cccc1Cl,KZLMCDNAVVJKPX-UHFFFAOYSA-N,-3.1019
1-chloro-4-methylbenzene,,Cc1ccc(Cl)cc1,NPDACUSDTOMAMK-UHFFFAOYSA-N,-3.102385677
p-ethyltoluene,,CCc1ccc(C)cc1,JRLPEMVDPFPYPJ-UHFFFAOYSA-N,-3.1026
4-tert-butylcyclohexan-1-ol,,CC(C)(C)C1CCC(O)CC1,CCOQPGVQAWPUPE-UHFFFAOYSA-N,-3.103262125
"3,7-dimethyloct-6-enenitrile",,CC(CCC=C(C)C)CC#N,MTDAKBBUYMYKAR-UHFFFAOYSA-N,-3.104157036
"benzoic acid, o-phthalidyl-",,OC(=O)c1ccccc1C2OC(=O)c3ccccc23,UBTNYTYIXDTYQT-UHFFFAOYSA-N,-3.1042
,CHEMBL3634884,Cc1ncc2c(N)c(C#N)c(N)nc2n1,IOPCGJLPSXSZJB-UHFFFAOYSA-N,-3.10598011
"benzene, 1-methoxy-2,4-dinitro-",,COc1ccc(cc1[N+]([O-])=O)[N+]([O-])=O,CVYZVNVPQRKDLW-UHFFFAOYSA-N,-3.107
"1,6-bis(propan-2-yl) hexanedioate",,CC(C)OC(=O)CCCCC(=O)OC(C)C,ZDQWESQEGGJUCH-UHFFFAOYSA-N,-3.107028976
"hexanamide, n,n'-1,2-ethanediylbis-",,CCCCCC(=O)NCCNC(=O)CCCCC,JUFADMDNFLYBPC-UHFFFAOYSA-N,-3.1079
Cortisone,CAS53-06-5,C[C@]12CC(=O)[C@H]3[C@@H](CCC4=CC(=O)CC[C@@]43C)[C@@H]1CC[C@]2(O)C(=O)CO,MFYSYFVPBJMHGN-ZPOLXVRWSA-N,-3.11
cortisone,,CC12CCC(=O)C=C1CCC3C4CCC(O)(C(=O)CO)C4(C)CC(=O)C23,MFYSYFVPBJMHGN-UHFFFAOYSA-N,-3.11
methyl thiabendazole-1-carboxylate; 1-methoxycarbonylthiabendazole; 1-methoxycarbonyl-2-(4-thiazolyl)benzimidazole,,COC(=O)[N]1C2=C(C=CC=C2)N=C1C3=CSC=N3,XOLFCAOGEVVBST-UHFFFAOYSA-N,-3.11
n1-(1-allyl-2-oxopyrimidin-4-yl)sulfanilamide;  1-allyl-4-sulfapyrimidin-2-one,,NC1=CC=C(C=C1)[S](=O)(=O)NC2=NC(=O)N(CC=C)C=C2,VIAUKNFHMJPBHP-UHFFFAOYSA-N,-3.11
n1-(1-isobutyl-2-oxopyrimidin-4-yl)sulfanilamide;  1-isobutyl-4-sulfapyrimidin-2-one,,CC(C)CN1C=CC(=NC1=O)N[S](=O)(=O)C2=CC=C(N)C=C2,IMPWCIFPLYQYLB-UHFFFAOYSA-N,-3.11
"3,9-di(propan-2-yl)-2,4,8,10-tetraoxaspiro[5.5]undecane",,CC(C)C1OCC2(CO1)COC(C(C)C)OC2,NEBWHJITDZAZPU-UHFFFAOYSA-N,-3.11
"3-(decylamino)propane-1,2-diol",,CCCCCCCCCCNCC(O)CO,UIEJEXBQVZLMGC-UHFFFAOYSA-N,-3.11
"4-quinolinecarboxylic acid, 1,2-dihydro-6-methox",,COc1ccc2NC(=O)C=C(C([O-])=O)c2c1,ATQXNYQCZFMIKY-UHFFFAOYSA-M,-3.1104
"1,12-dodecanedicarboxylic acid",,OC(=O)CCCCCCCCCCCCC(O)=O,HQHCYKULIHKCEB-UHFFFAOYSA-N,-3.1112
2-bromobutane,,CCC(C)Br,UPSXAPQYNGXVBF-UHFFFAOYSA-N,-3.111478098
"11,17,21-trihydroxypregn-4-ene-3,20-dione",,C[C@]12CCC(=O)C=C1CC[C@H]3[C@@H]4CC[C@](O)(C(=O)CO)[C@@]4(C)C[C@H](O)[C@H]23,JYGXADMDTFJGBT-VWUMJDOOSA-N,-3.112109244
"3-(2-hydroxyethyl)-1,2,3,4-tetrahydroquinazoline-2,4-dione",,OCCN1C(=O)Nc2ccccc2C1=O,DSUNWRHRAQZLNC-UHFFFAOYSA-N,-3.112893643
"3,5-dichlorobenzoic acid",,OC(=O)c1cc(Cl)cc(Cl)c1,CXKCZFDUOYMOOP-UHFFFAOYSA-N,-3.1137
2-{[(2-ethylhexyl)oxy]methyl}oxirane,,CCCCC(CC)COCC1CO1,BBBUAWSVILPJLL-UHFFFAOYSA-N,-3.114865161
tri n-butylamine,,CCCCN(CCCC)CCCC,IMFACGCPASFAPR-UHFFFAOYSA-N,-3.1157
"1,3-benzenedicarboxylic acid, 4-methoxy-",,COc1ccc(cc1C(O)=O)C(O)=O,JIICYHFLIOGGHE-UHFFFAOYSA-N,-3.1165
furalaxyl,,COC(=O)C(C)N(C(=O)c1occc1)c2c(C)cccc2C,CIEXPHRYOLIQQD-UHFFFAOYSA-N,-3.1173
2-phenylethyl propanoate,,CCC(=O)OCCc1ccccc1,HVGZQCSMLUDISR-UHFFFAOYSA-N,-3.117444335
benzyl butanoate,,CCCC(=O)OCc1ccccc1,VONGZNXBKCOUHB-UHFFFAOYSA-N,-3.117444335
"2-(heptan-3-yl)-1,3-dioxolane",,CCCCC(CC)C1OCCO1,LQSZQAHPRJMRET-UHFFFAOYSA-N,-3.119596868
tetracycline,,CN(C)C2C1CC4C(=C(O)C1(O)C(=O)C(=C2O)C(N)=O)C(=O)c3c(O)cccc3C4(C)O,OFVLGDICTFRJMM-UHFFFAOYSA-N,-3.12
2-amino-4-(3-amino-4-hydroxy-4-oxobutyl)disulfanylbutanoic acid,,NC(CCSSCCC(N)C(=O)O)C(=O)O,ZTVZLYBCZNMWCF-UHFFFAOYSA-N,-3.12
"4-amino-N-(5-ethyl-1,3,4-thiadiazol-2-yl)benzenesulfonamide",,CCC1=NN=C(NS(=O)(=O)C2=CC=C(N)C=C2)S1,SVYBEBLNQGDRHF-UHFFFAOYSA-N,-3.12
Nafarelin,CAS76932-56-4,CC(C)C[C@H](NC(=O)[C@@H](Cc1ccc2ccccc2c1)NC(=O)[C@H](Cc1ccc(O)cc1)NC(=O)[C@H](CO)NC(=O)[C@H](Cc1c[nH]c2ccccc12)NC(=O)[C@H](Cc1c[nH]cn1)NC(=O)[C@@H]1CCC(=O)N1)C(=O)N[C@@H](CCCNC(=N)N)C(=O)N1CCC[C@H]1C(=O)NCC(N)=O,RWHUEXWOYVBUCI-ITQXDASVSA-N,-3.12
"2h-1-benzopyran-2-one, 7-methoxy-",,COc1ccc2C=CC(=O)Oc2c1,LIIALPBMIOVAHH-UHFFFAOYSA-N,-3.1221
1-chlorohexane,,CCCCCCCl,MLRVZFYXUZQSRU-UHFFFAOYSA-N,-3.122388733
vinyltoluene,,Cc1cccc(C=C)c1,JZHGRUMIRATHIU-UHFFFAOYSA-N,-3.123150304
p-methylstyrene,,Cc1ccc(C=C)cc1,JLBJTVDPSNHSKJ-UHFFFAOYSA-N,-3.1232
"acetic acid, (2-bromo-4,6-dimethylphenoxy)-",,Cc1cc(C)c(OCC(O)=O)c(Br)c1,XISIDZGSQIHSIK-UHFFFAOYSA-N,-3.1234
brompyrazone,,NC1=C(Br)C(=O)N(N=C1)c2ccccc2,ODNZLRLWXRXPOH-UHFFFAOYSA-N,-3.124
"benzoic acid, 5-chloro-2-hydroxy-4-methyl-",,Cc1cc(O)c(cc1Cl)C(O)=O,PNBKMRRXXVGPTJ-UHFFFAOYSA-N,-3.1248
hexadecyltrimethylazanium chloride,,[Cl-].CCCCCCCCCCCCCCCC[N+](C)(C)C,WOWHHFRSBJGXCM-UHFFFAOYSA-M,-3.124945522
(E)-anethole,,COc1ccc(\C=C\C)cc1,RUVINXPYWBROJD-ONEGZZNKSA-N,-3.125539877
"benzene, 1-fluoro-4-iodo-",,Fc1ccc(I)cc1,KGNQDBQYEBMPFZ-UHFFFAOYSA-N,-3.1257
1-hexyl nitrate,,CCCCCCO[N+]([O-])=O,AGDYNDJUZRMYRG-UHFFFAOYSA-N,-3.1265
3-oxo-N-[4-(3-oxobutanamido)phenyl]butanamide,,CC(=O)CC(=O)Nc1ccc(NC(=O)CC(C)=O)cc1,OWGNKUKYZPVEFS-UHFFFAOYSA-N,-3.12750109
"1,4-dibutyl (2Z)-but-2-enedioate",,CCCCOC(=O)\C=C/C(=O)OCCCC,JBSLOWBPDRZSMB-FPLPWBNLSA-N,-3.128034162
"1-naphthalenecarboxylic acid, 2-hydroxy-",,OC(=O)c1c(O)ccc2ccccc12,UPHOPMSGKZNELG-UHFFFAOYSA-N,-3.1284
"propanoic acid, 2-(2,4,5-trichlorophenoxy)-, (r)",,C[C@@H](Oc1cc(Cl)c(Cl)cc1Cl)C(O)=O,ZLSWBLPERHFHIS-SCSAIBSYSA-N,-3.1295
alclofenac,,OC(=O)CC1=CC(=C(OCC=C)C=C1)Cl,ARHWPKZXBHOEEE-UHFFFAOYSA-N,-3.13
"3-(1-aziridinyl)-4,6-dinitro-(n-ethyl)benzamide",,CCNC(=O)C1=CC(=C(C=C1[N+]([O-])=O)[N+]([O-])=O)N2CC2,YQQRZTDOPIBVHX-UHFFFAOYSA-N,-3.13
"boc-phe-his-sta-leu-nh-chph-cooh, analog 18",,CC(C)CC(NC(=O)C(CC1=C[NH]C=N1)NC(=O)C(CC2=CC=CC=C2)NC(=O)OC(C)(C)C)C(O)CC(=O)NC(CC(C)C)C(=O)NC(C(O)=O)C3=CC=CC=C3,XGCDNGBJXXBQKT-UHFFFAOYSA-N,-3.13
Anethole,,O(c(ccc(c1)C=CC)c1)C,RUVINXPYWBROJD-UHFFFAOYSA-N,-3.13
"1,5-dihydropteridine-2,4,6-trione",,O=C1C=NC2=C(N1)C(=O)NC(=O)N2,ICUZHLHSYKJAGS-UHFFFAOYSA-N,-3.13
"1-(1-phenylpyrazolo[4,5-b]quinoxalin-3-yl)propane-1,2,3-triol",,OCC(O)C(O)C1=NN(C2=CC=CC=C2)C2=C1N=C1C=CC=CC1=N2,SZIWVPXLZYHQFM-UHFFFAOYSA-N,-3.13
sarafloxacin,,C1CN(CCN1)c1c(cc2c(n(cc(C(=O)O)c2=O)c2ccc(cc2)F)c1)F,XBHBWNFJWIASRO-UHFFFAOYSA-N,-3.13
4-tert-butylbenzaldehyde,,CC(C)(C)c1ccc(C=O)cc1,OTXINXDGSUFPNU-UHFFFAOYSA-N,-3.130955276
"octanedioic acid, 3,3,6,6-tetramethyl-",,CC(C)(CCC(C)(C)CC(O)=O)CC(O)=O,XCPSWBNEOGUWCT-UHFFFAOYSA-N,-3.1319
cobalt(2+) bis[3-(3-ethylcyclopentyl)propanoate],,[Co++].CCC1CCC(CCC([O-])=O)C1.CCC2CCC(CCC([O-])=O)C2,XSWKLHINRKWMTD-UHFFFAOYSA-L,-3.132383191
"1h-purin-2-amine, 6-(trifluoromethyl)-",,Nc1nc2nc[nH]c2c(n1)C(F)(F)F,BPGSASFKCZQNNZ-UHFFFAOYSA-N,-3.1346
"4-methyl-2,3-dihydro-1H-1,3-benzodiazole-2-thione; 5-methyl-2,3-dihydro-1H-1,3-benzodiazole-2-thione",,Cc1cccc2NC(=S)Nc12,UDQCDDZBBZNIFA-UHFFFAOYSA-N,-3.13627918
benzylisothiocyanate,,S=C=NCc1ccccc1,MDKCFLQDBWCQCV-UHFFFAOYSA-N,-3.1364
"N-(carboxymethyl)-3-(dodecanoylamino)-N,N-dimethylpropan-1-aminium hydroxide",,CCCCCCCCCCCC(=O)NCCC[N+](C)(C)CC([O-])=O,MRUAUOIMASANKQ-UHFFFAOYSA-N,-3.136750998
peruvoside,,COC1[C@H](O)C(C)O[C@H](O[C@H]2CC[C@@]3(C=O)[C@H](CCC4C3CC[C@]5(C)[C@H](CC[C@]45O)C6=CC(=O)OC6)C2)C1O,PMTSPAGBAFCORP-DGORKHCUSA-N,-3.1373
"(2E)-1-(2,6,6-trimethylcyclohex-2-en-1-yl)but-2-en-1-one",,C/C=C/C(=O)C1C(=CCCC1(C)C)C,CRIGTVCBMUKRSL-FNORWQNLSA-N,-3.137855765
"3,4-dichlorobenzyl methylcarbamate",,CNC(=O)OCc1ccc(Cl)c(Cl)c1,DSVOTYIOPGIVPP-UHFFFAOYSA-N,-3.1389
"benzenemethanol, 2,3(or 3,4)-dichloro-, methyl c",,CNC(=O)OCc1cccc(Cl)c1Cl,SESJCOBCXSACPH-UHFFFAOYSA-N,-3.1389
noscapine,,COc1ccc2[C@H](OC(=O)c2c1OC)[C@@H]3N(C)CCc4cc5OCOc5c(OC)c34,AKNNEGZIBPJZJG-MSOLQXFVSA-N,-3.1393
"3-pyridinecarboxamide, n-nonyl-",,CCCCCCCCCNC(=O)c1cccnc1,GPBKHZUWQWRROQ-UHFFFAOYSA-N,-3.1398
vitavax;  carboxin,,CC1=C(SCCO1)C(=O)NC2=CC=CC=C2,GYSSRZJIHXQEHQ-UHFFFAOYSA-N,-3.14
5-butyl-5-ethyl-2-thiobarbituric acid,,CCCCC1(CC)C(=O)NC(=S)NC1=O,GRNZOXPRBXDLPY-UHFFFAOYSA-N,-3.14
Noscapine,,COc2ccc1C(OC(=O)c1c2OC)C4N(C)CCc5cc3OCOc3c(OC)c45,AKNNEGZIBPJZJG-UHFFFAOYSA-N,-3.14
"5-(2-Ethylbutyl)-5-(2-hydroxyethyl)-2-thioxodihydro-4,6(1H,5H)-pyrimidinedione",,CCC(CC)CC1(CCO)C(=O)NC(=S)NC1=O,MXIUSHZGPUCUIF-UHFFFAOYSA-N,-3.14
carbon tetrabromide,,BrC(Br)(Br)Br,HJUGFYREWKUQJT-UHFFFAOYSA-N,-3.1404
"benzenesulfonamide, 4-amino-n-(4,5-dimethyl-2-py",,Cc1cnc(N[S](=O)(=O)c2ccc(N)cc2)nc1C,IHEAINLLXOBUEW-UHFFFAOYSA-N,-3.1435
,CHEMBL1631003,C[C@H](Oc1ccc(cc1C(=O)N2Cc3ccc(cc3C2)N4CCOCC4)S(=O)(=O)C)C(F)(F)F,PSDSFAHHQSHIOM-HNNXBMFYSA-N,-3.147126226
nonanal,,CCCCCCCCC=O,GYHFUZHODSMOHU-UHFFFAOYSA-N,-3.148706476
furilazole,,CC1(C)OC(CN1C(=O)C(Cl)Cl)c2occc2,MCNOFYBITGAAGM-UHFFFAOYSA-N,-3.1498
oxytetracycline; terramycin,,CN(C)C1C2C(O)C3C(=C(O)C2(O)C(=O)C(=C1O)C(N)=O)C(=O)C4=C(C=CC=C4O)C3(C)O,IWVCMVBTMGNXQD-UHFFFAOYSA-N,-3.15
"morphine;  7,8-didehydro-4,5-epoxy-17-methylmorphinan-3,6-diol",,CN1CCC23C4OC5=C(O)C=CC(=C25)CC1C3C=CC4O,BQJCRHHNABKAKU-UHFFFAOYSA-N,-3.15
"3,3-dimethyl-6-[[2-(4-methylphenoxy)acetyl]amino]-7-oxo-4-thia-1-azabicyclo[3.2.0]heptane-2-carboxylic acid",,CC1=CC=C(OCC(=O)NC2C(=O)N3C2SC(C)(C)C3C(=O)O)C=C1,PSHRTKHMFMNJFD-UHFFFAOYSA-N,-3.15
"2,3,4,5-Tetrachlorophenol",,Oc1cc(Cl)c(Cl)c(Cl)c1Cl,RULKYXXCCZZKDZ-UHFFFAOYSA-N,-3.15
Ketoprofen,CAS22071-15-4,CC(C(=O)O)c1cccc(C(=O)c2ccccc2)c1,DKYWVDODHFEZIM-UHFFFAOYSA-N,-3.15
"diphenylurea, sym",,O=C(Nc1ccccc1)Nc2ccccc2,GWEHVDNNLFDJLR-UHFFFAOYSA-N,-3.1508
cyanazine,,CCNc1nc(Cl)nc(NC(C)(C)C#N)n1,MZZBPDKVEFVLFF-UHFFFAOYSA-N,-3.151
"1,3-benzothiazole-2-thiol",,S=C1Nc2ccccc2S1,YXIWHUQXZSMYRE-UHFFFAOYSA-N,-3.151504892
undecanal,,CCCCCCCCCCC=O,KMPQYAYAQWNLME-UHFFFAOYSA-N,-3.152023201
phenyl 2-hydroxybenzoate,,Oc1ccccc1C(=O)Oc2ccccc2,ZQBAKBUEJOMQEX-UHFFFAOYSA-N,-3.154768756
"2-propenoic acid, 3-[2-(acetyloxy)phenyl]-, (e)-",,CC(=O)Oc1ccccc1\C=C\C(O)=O,UXOWQQCLBQBRMQ-VOTSOKGWSA-N,-3.1559
"estr-4-ene-3,17-dione",,C[C@]12CC[C@H]3[C@@H](CCC4=CC(=O)CC[C@H]34)[C@@H]1CCC2=O,JRIZOGLBRPZBLQ-QXUSFIETSA-N,-3.156500662
"benzoic acid, 2-hydroxy-, 3-methylbutyl ester",,CC(C)CCOC(=O)c1ccccc1O,PMGCQNGBLMMXEW-UHFFFAOYSA-N,-3.1572
"1-hexanamine, n-hexyl-",,CCCCCCNCCCCCC,PXSXRABJBXYMFT-UHFFFAOYSA-N,-3.1574
3-(4-tert-butylphenyl)propanal,,CC(C)(C)c1ccc(CCC=O)cc1,FZJUFJKVIYFBSY-UHFFFAOYSA-N,-3.158832906
5-nitro-2-propoxyaniline,,CCCOc1ccc(cc1N)[N+]([O-])=O,RXQCEGOUSFBKPI-UHFFFAOYSA-N,-3.1592
2-amino-3-[(2-amino-2-carboxyethyl)disulfanyl]propanoic acid,,N[C@@H](CSSC[C@H](N)C(O)=O)C(O)=O,LEVWYRKDKASIDU-IMJSIDKUSA-N,-3.159921987
"3,4-dimethylbenzoic  acid",,CC1=C(C)C=C(C=C1)C(O)=O,OPVAJFQBSDUNQA-UHFFFAOYSA-N,-3.16
"1,3-dipropyl-8-(3-oxocyclopentyl)xanthine",,CCCN1C(=O)N(CCC)C2=C([NH]C(=N2)C3CCC(=O)C3)C1=O,RUHGOZFOVBMWOO-UHFFFAOYSA-N,-3.16
"N-(2-sulfamoyl-1,3-benzothiazol-6-yl)acetamide",,CC(=O)NC1=CC2=C(C=C1)N=C(S(N)(=O)=O)S2,RPVVBRXMFQZDHZ-UHFFFAOYSA-N,-3.16
2-(4-chloro-2-methylphenoxy)ethanethioic S-acid,,CC1=C(OCC(O)=S)C=CC(Cl)=C1,OELWFMFENYNUQY-UHFFFAOYSA-N,-3.16
N-Cyclohexyl-N-hydroxycyclopentanecarboxamide,,O=C(C1CCCC1)N(O)C1CCCCC1,STIPIHXPRMEWJB-UHFFFAOYSA-N,-3.16
diltiazem,,O=C1[C@H](OC(C)=O)[C@H](c2ccc(OC)cc2)Sc2ccccc2N1CCN(C)C,HSUGRBWQSSZJOP-RTWAWAEBSA-N,-3.16
2-methylthiobenzothiazole,,CSc1sc2ccccc2n1,UTBVIMLZIRIFFR-UHFFFAOYSA-N,-3.1614
tifatol,,CN1C=CSC1=Nc2ccc(C)cc2C,YUAUPYJCVKNAEC-UHFFFAOYSA-N,-3.163
2-methylbutane,,CCC(C)C,QWTDNUCVQCZILF-UHFFFAOYSA-N,-3.163
npa (naptalam),,OC(=O)c1ccccc1C(=O)Nc2cccc3ccccc23,JXTHEWSKYLZVJC-UHFFFAOYSA-N,-3.1633
crufomate,,CN[P](=O)(OC)Oc1ccc(cc1Cl)C(C)(C)C,BOFHKBLZOYVHSI-UHFFFAOYSA-N,-3.1639
"(4E)-3-methyl-5-(2,6,6-trimethylcyclohex-1-en-1-yl)penta-1,4-dien-3-ol",,CC1=C(/C=C/C(C)(O)C=C)C(C)(C)CCC1,PZGYHDPZANRCSM-PKNBQFBNSA-N,-3.164147933
"8-quinolinecarboxylic acid, 5-nitro-",,OC(=O)c1ccc(c2cccnc12)[N+]([O-])=O,HXHZCOASPJWXPP-UHFFFAOYSA-N,-3.1656
5-chloro-2-hydroxydiphenylmethane,,Oc1ccc(Cl)cc1Cc2ccccc2,NCKMMSIFQUPKCK-UHFFFAOYSA-N,-3.1666
tolbutamide,,CCCCNC(=O)N[S](=O)(=O)C1=CC=C(C)C=C1,JLRGJRBPOGGCBT-UHFFFAOYSA-N,-3.17
3-chloro-2-phenylsulfonamidopyridine,,ClC1=CC=CN=C1N[S](=O)(=O)C2=CC=CC=C2,MIPCZELJNQPXAK-UHFFFAOYSA-N,-3.17
"3-(aziridin-1-yl)-4,6-dinitro-n-(tert-butyl)benzamide",,CC(C)(C)NC(=O)C1=CC(=C(C=C1[N+]([O-])=O)[N+]([O-])=O)N2CC2,NJDKQHDDTBKDER-UHFFFAOYSA-N,-3.17
"1-[3-(aziridin-1-yl)-4,6-dinitrobenzoyl]piperidine",,[O-][N+](=O)C1=C(C=C(C(=O)N2CCCCC2)C(=C1)[N+]([O-])=O)N3CC3,DFFPUVDMNIWTAL-UHFFFAOYSA-N,-3.17
n1-(1-isopropyl-2-oxopyrimidin-4-yl)sulfanilamide;  1-isopropyl-4-sulfapyrimidin-2-one,,CC(C)N1C=CC(=NC1=O)N[S](=O)(=O)C2=CC=C(N)C=C2,LRUSAJDEBDJPKV-UHFFFAOYSA-N,-3.17
methyl 3-bromo-4-hydroxybenzoate,,COC(=O)C1=CC(Br)=C(O)C=C1,RKUNSPWAQIUGEZ-UHFFFAOYSA-N,-3.17
"[5-(1,2-dihydroxyethyl)-2,2-dimethyl-3~{a},5,6,6~{a}-tetrahydrofuro[2,3-d][1,3]dioxol-6-yl] octanoate",,CCCCCCCC(=O)OC1C(C(O)CO)OC2OC(C)(C)OC21,BWPMRWFYEBBMJE-UHFFFAOYSA-N,-3.17
Methyl octanoate,,CCCCCCCC(=O)OC,JGHZJRVDZXSNKQ-UHFFFAOYSA-N,-3.17
Alachlor,,CCC1=CC=CC(CC)=C1N(COC)C(=O)CCl,XCSGPAVHZFQHGE-UHFFFAOYSA-N,-3.17
Disulfiram,CAS97-77-8,CCN(CC)C(=S)SSC(=S)N(CC)CC,AUZONCFQVSMFAP-UHFFFAOYSA-N,-3.17
"1-pentanesulfinothioic acid, s-pentyl ester",,CCCCCS[S](=O)CCCCC,UXGUHQNYRZMSQI-UHFFFAOYSA-N,-3.1711
2-phenethylisothiocyanate,,S=C=NCCc1ccccc1,IZJDOKYDEWTZSO-UHFFFAOYSA-N,-3.1714
"2-tert-butyl-4,6-dimethylphenol",,Cc1cc(C)c(O)c(c1)C(C)(C)C,OPLCSTZDXXUYDU-UHFFFAOYSA-N,-3.171909199
2-[(1Z)-({2-[(E)-[(2-hydroxyphenyl)methylidene]amino]propyl}imino)methyl]phenol,,CC(CN\C=C/1C=CC=CC1=O)N\C=C/2C=CC=CC2=O,OWGJODGIHAHWQP-GFCQZRJLSA-N,-3.172023424
bcpc,,CCC(C)OC(=O)Nc1cccc(Cl)c1,CURLHBZYTFVCRG-UHFFFAOYSA-N,-3.1727
probenazole,,C=CCOC1=N[S](=O)(=O)c2ccccc12,WHHIPMZEDGBUCC-UHFFFAOYSA-N,-3.1727
,CHEMBL1631195,CS(=O)(=O)c1ccc(OCCC(F)(F)F)c(c1)C(=O)N2Cc3ccc(cc3C2)C4CCOCC4,OKLLQEQVBOXGNV-UHFFFAOYSA-N,-3.172739561
"1,3-xylene; cyclopentane; ethylbenzene; pentane; toluene",,CCCCC.CCc1ccccc1.Cc2ccccc2.Cc3cccc(C)c3.C4CCCC4,KXUYVAICGNQKKK-UHFFFAOYSA-N,-3.172955944
"hexanedioic acid, 2,2-diphenyl-",,OC(=O)CCCC(C(O)=O)(c1ccccc1)c2ccccc2,NUDXUJGIZOXHOV-UHFFFAOYSA-N,-3.1737
(3Z)-hex-3-en-1-yl 2-methylpropanoate,,CC\C=C/CCOC(=O)C(C)C,OSMAJVWUIUORGC-WAYWQWQTSA-N,-3.174187371
sulfometuron (ph 5-7),,COC(=O)c1ccccc1[S](=O)(=O)NC(=O)Nc2nc(C)cc(C)n2,ZDXMLEQEMNLCQG-UHFFFAOYSA-N,-3.1742
Metoclopramide,CAS364-62-5,[2H]C([2H])([2H])Oc1cc(N)c(Cl)cc1C(=O)NCCN(CC)CC,TTWJBBZEZQICBI-HPRDVNIFSA-N,-3.18
"4(1h)-pteridinone, 6,7-diphenyl-",,O=C1N=CNc2nc(c3ccccc3)c(nc12)c4ccccc4,UMUYUDSQRKTBKA-UHFFFAOYSA-N,-3.1766
(5Z)-5-ethylidenebicyclo[2.2.1]hept-2-ene,,C\C=C1/CC2CC1C=C2,OJOWICOBYCXEKR-KRXBUXKQSA-N,-3.176796415
phenylisothiocyanate,,S=C=Nc1ccccc1,QKFJKGMPGYROCL-UHFFFAOYSA-N,-3.1772
Lamotrigine,CAS84057-84-1,Nc1nnc(-c2cccc(Cl)c2Cl)c(N)n1,PYZRQGJRPPTADH-UHFFFAOYSA-N,-3.18
"1-chloro-2,5-dimethoxy-4-nitrobenzene",,COc1cc(c(OC)cc1Cl)[N+]([O-])=O,ORLPGMKKCAEWOW-UHFFFAOYSA-N,-3.179312365
"1,2-dimethyl-4-nitrobenzene",,Cc1ccc(cc1C)[N+]([O-])=O,HFZKOYWDLDYELC-UHFFFAOYSA-N,-3.179451248
"4-[1,1,1,3,3,3-hexafluoro-2-(4-hydroxyphenyl)propan-2-yl]phenol",,Oc1ccc(cc1)C(c2ccc(O)cc2)(C(F)(F)F)C(F)(F)F,ZFVMWEVVKGLCIJ-UHFFFAOYSA-N,-3.179502969
metoclopramide,,CCN(CC)CCNC(=O)C1=CC(=C(N)C=C1OC)Cl,TTWJBBZEZQICBI-UHFFFAOYSA-N,-3.18
2-hydroxy-4-(3-methyl-5-pentylisoxazol-4-ylimino)-4h-naphthalen-1-one,,CCCCCC1=C(N=C2C=C(O)C(=O)C3=C2C=CC=C3)C(=NO1)C,UVDMLIMKZIIZSL-UHFFFAOYSA-N,-3.18
trichlormethiazide with crystal form i,,N[S](=O)(=O)C1=C(Cl)C=C2NC(N[S](=O)(=O)C2=C1)C(Cl)Cl,LMJSLTNSBFUCMU-UHFFFAOYSA-N,-3.18
"entacapone analog (2a);  (e)-2-cyano-n,n-diethyl-3-[3-n-ethylcarbamoyloxy-4-hydroxy-5-nitrophenyl]propenamide",,CCNC(=O)OC1=C(O)C(=CC(=C1)\C=C(C#N)/C(=O)N(CC)CC)[N+]([O-])=O,HVMGUPMFFCLQNI-GHXNOFRVSA-N,-3.18
enrofloxacin,,CCN1CCN(CC1)C2=CC3=C(C=C2F)C(=O)C(=CN3C4CC4)C(O)=O,SPFYMRJSYKOXGV-UHFFFAOYSA-N,-3.18
coroxon,,CCO[P](=O)(OCC)OC1=CC2=C(C=C1)C(=C(Cl)C(=O)O2)C,FDYMERLIFOUIRZ-UHFFFAOYSA-N,-3.18
"2-(3,5-diiodo-4-oxopyridin-1-yl)-~{N},~{N}-diethylacetamide",,CCN(CC)C(=O)CN1C=C(I)C(=O)C(I)=C1,CSQURMUDBHVSKP-UHFFFAOYSA-N,-3.18
Cycloheptene,,C1CCC=CCC1,ZXIJMRYMVAMXQP-UHFFFAOYSA-N,-3.18
Prednisolone,,CC12CC(O)C3C(CCC4=CC(=O)C=CC34C)C2CCC1(O)C(=O)CO,OIGNJSKKLXVSLS-UHFFFAOYSA-N,-3.18
"(1r,4r)-(+)-camphor",,CC1(C)[C@H]2CC[C@@]1(C)C(=O)C2,DSSYKIVIOFKYAU-XVKPBYJWSA-N,-3.1825
Neohesperidin dihydrochalone,,COc1ccc(CCC(=O)c2c(O)cc(O[C@@H]3O[C@H](CO)[C@@H](O)[C@H](O)[C@H]3O[C@@H]4O[C@@H](C)[C@H](O)[C@@H](O)[C@H]4O)cc2O)cc1O,ITVGXXMINPYUHD-CUVHLRMHSA-N,-3.185103531
Diazoxide,CAS364-98-7,CC1=Nc2ccc(Cl)cc2S(=O)(=O)N1,GDLBFKVLRPITMI-UHFFFAOYSA-N,-3.19
ethyl 2-methyl-4-oxo-6-pentylcyclohex-2-ene-1-carboxylate,,CCCCCC1CC(=O)C=C(C)C1C(=O)OCC,ZJLHQWGPVWXKME-UHFFFAOYSA-N,-3.187166345
propisochlor,,CCc1cccc(C)c1N(COC(C)C)C(=O)CCl,KZNDFYDURHAESM-UHFFFAOYSA-N,-3.1882
3-cyanophenyl  isothiocyanate; 3-isothiocyanatobenzonitrile,,S=C=NC1=CC=CC(=C1)C#N,UXCYPHCFQAFVFH-UHFFFAOYSA-N,-3.19
2-{[4-(2-chloroacetyl)phenyl]hydrazono}malononitrile,,ClCC(=O)C1=CC=C(NN=C(C#N)C#N)C=C1,ARUUDRZOVHJRDG-UHFFFAOYSA-N,-3.19
cinchoninone,,C=CC1CN2CCC1CC2C(=O)C3=CC=NC4=C3C=CC=C4,AEFOLTVWSRMXMW-UHFFFAOYSA-N,-3.19
"dpx-m6316;  methyl  3-(4',6'-dimethoxy-1',3',5'-triazin-2'-yl)ureidosulfonylthiophene-2-carboxylate",,COC(=O)C1=C(C=CS1)[S](=O)(=O)NC(=O)NC2=NC(=NC(=N2)OC)OC,KMTDLXVYRNAWSN-UHFFFAOYSA-N,-3.19
2-phenyl-N-(1-phenylethyl)acetamide,,CC(NC(=O)CC1=CC=CC=C1)C1=CC=CC=C1,YPFYOAJCSYWUGO-UHFFFAOYSA-N,-3.19