Name,ID,SMILES,inchi,LogS
2-[5-[(2-hydroxy-2-oxo-1-phenylethyl)amino]pentylamino]-2-phenylacetic acid,,O=C(O)C(NCCCCCNC(C(=O)O)C1=CC=CC=C1)C1=CC=CC=C1,RYJPNIRLUSZYIB-UHFFFAOYSA-N,-2.02
"ethanone, 1-(2,3,4-trihydroxyphenyl)-",,CC(=O)c1ccc(O)c(O)c1O,XIROXSOOOAZHLL-UHFFFAOYSA-N,-2.0216
"tetrasodium 2-[(E)-2-{4-[(E)-2-{4-[(E)-2-[1-hydroxy-6-(phenylamino)-3-sulfonatonaphthalen-2-yl]diazen-1-yl]naphthalen-1-yl}diazen-1-yl]-6-sulfonatonaphthalen-1-yl}diazen-1-yl]benzene-1,4-disulfonate",,[Na+].[Na+].[Na+].[Na+].[O-][S](=O)(=O)c1ccc(c(c1)N=Nc2ccc(N=Nc3ccc(N\N=C4/C(=O)C(=Cc5cc(Nc6ccccc6)ccc45)[S]([O-])(=O)=O)c7ccccc37)c8cc(ccc28)[S]([O-])(=O)=O)[S]([O-])(=O)=O,WVAXYCNDKXJNGU-MNACUSLPSA-J,-2.023633484
"2-methylbuta-1,3-diene",,CC(=C)C=C,RRHGJUQNOFWUDK-UHFFFAOYSA-N,-2.025733236
butyl nitrate,,CCCCO[N+]([O-])=O,QQHZPQUHCAKSOL-UHFFFAOYSA-N,-2.0268
4-propylphenol,,CCCc1ccc(O)cc1,KLSLBUSXWBJMEC-UHFFFAOYSA-N,-2.0276
"1-(2,2-dimethylpropanoyloxymethyl)-5-fluorouracil;  1-pivaloyloxymethyl-5-fluorouracil",,CC(C)(C)C(=O)OCN1C=C(F)C(=O)NC1=O,SYAUFWSKTQBAJI-UHFFFAOYSA-N,-2.03
"5-(4-fluorobenzenesulfonylimido)-4-methyl-2-sulfonamido-delta2-1,3,4-thiadiazoline",,CN1N=C(SC1=N[S](=O)(=O)C2=CC=C(F)C=C2)[S](N)(=O)=O,YTIHPYNMOXPHQK-UHFFFAOYSA-N,-2.03
1-chlorobutane,,CCCCCl,VFWCMGCRMGJXDK-UHFFFAOYSA-N,-2.03
3-hydroxy-2-methyl-1-phenylpyridin-4-one,,CC1=C(O)C(=O)C=CN1C1=CC=CC=C1,BNXSABDYGOUQQI-UHFFFAOYSA-N,-2.03
4-oxo-4-[(4-sulfamoylphenyl)amino]butanoic acid,,NS(=O)(=O)C1=CC=C(NC(=O)CCC(=O)O)C=C1,RXXXPZYBZLDQKP-UHFFFAOYSA-N,-2.03
"5,6-dihydroxy-5,6-dihydrobenzo[b][1]benzazepine-11-carboxamide",,NC(=O)N1C2=C(C=CC=C2)C(O)C(O)C2=C1C=CC=C2,PRGQOPPDPVELEG-UHFFFAOYSA-N,-2.03
6-[Hydroxy(6-methoxy-4-quinolinyl)methyl]quinuclidine-3-carboxylic acid,,COC1=CC2=C(C=C1)N=CC=C2C(O)C1CC2CCN1CC2C(=O)O,SDKSKRHLYWDWGB-UHFFFAOYSA-N,-2.03
"disodium 1-amino-4-(4-amino-9,10-dioxo-3-sulfonato-9,10-dihydroanthracen-1-yl)-9,10-dioxo-9,10-dihydroanthracene-2-sulfonate",,[Na+].[Na+].Nc1c2C(=O)c3ccccc3C(=O)c2c(cc1[S]([O-])(=O)=O)c4cc(c(N)c5C(=O)c6ccccc6C(=O)c45)[S]([O-])(=O)=O,OKHQKAVALRCESS-UHFFFAOYSA-L,-2.030180053
aluminum tris(4-oxopent-2-en-2-olate),,[Al+3].CC([O-])=CC(C)=O.CC([O-])=CC(C)=O.CC([O-])=CC(C)=O,KILURZWTCGSYRE-UHFFFAOYSA-K,-2.033837746
cloxyfonac,,OCc1cc(Cl)ccc1OCC(O)=O,ZJRUTGDCLVIVRD-UHFFFAOYSA-N,-2.0347
Cyanocobalamin (Vitamin B12),PubChemCID5311498,CC1=CC2=C(C=C1C)N(C=N2)C3C(C(C(O3)CO)OP(=O)([O-])OC(C)CNC(=O)CCC4(C(C5C6(C(C(C(=C(C7=NC(=CC8=NC(=C(C4=N5)C)C(C8(C)C)CCC(=O)N)C(C7(C)CC(=O)N)CCC(=O)N)C)[N-]6)CCC(=O)N)(C)CC(=O)N)C)CC(=O)N)C)O.[C-]#N.[Co+3],FDJOLVPMNUYSCM-UHFFFAOYSA-L,-2.04
8-quinazolinol,,Oc1cccc2cncnc12,LNNRQIKKDKDFRV-UHFFFAOYSA-N,-2.0361
Ceftazidime,CAS72558-82-8,CC(C)(O/N=C(\C(=O)N[C@@H]1C(=O)N2C(C(=O)[O-])=C(C[n+]3ccccc3)CS[C@H]12)c1csc(N)n1)C(=O)O,ORFOPKXBNMVMKC-DWVKKRMSSA-N,-2.04
"methacrylic acid, i-butyl ester",,CC(C)COC(=O)C(C)=C,RUMACXVDVNRZJZ-UHFFFAOYSA-N,-2.039
chlormezanone,,CN1C(c2ccc(Cl)cc2)[S](=O)(=O)CCC1=O,WEQAYVWKMWHEJO-UHFFFAOYSA-N,-2.0394
3-methylsalicylic acid; 2-hydroxy-3-methylbenzoic acid,,CC1=CC=CC(=C1O)C(O)=O,WHSXTWFYRGOBGO-UHFFFAOYSA-N,-2.04
6-methylsalicylic acid; 2-hydroxy-6-methylbenzoic acid,,CC1=CC=CC(=C1C(O)=O)O,HCJMNOSIAGSZBM-UHFFFAOYSA-N,-2.04
"1,2-bis(2-chloroethylsulfinyl)ethane",,O=S(CCCl)CCS(=O)CCCl,NSCXMOJHKQIMKA-UHFFFAOYSA-N,-2.04
N-Cyclohexyl-N-hydroxycyclopropanecarboxamide,,O=C(C1CC1)N(O)C1CCCCC1,MNTJUYOSLYWPDZ-UHFFFAOYSA-N,-2.04
(diethoxymethoxy)ethane,,CCOC(OCC)OCC,GKASDNZWUGIAMG-UHFFFAOYSA-N,-2.040520296
diethyl pimelate,,CCOC(=O)CCCCCC(=O)OCC,LKKOGZVQGQUVHF-UHFFFAOYSA-N,-2.0408
"propanedioic acid, heptyl-",,CCCCCCCC(C(O)=O)C(O)=O,YSFZWUJOBANROZ-UHFFFAOYSA-N,-2.0411
"1(3h)-isobenzofuranone, 6-amino-",,Nc1ccc2COC(=O)c2c1,ZIJZDNKZJZUROE-UHFFFAOYSA-N,-2.0414
"2,2-dimethyl-3-phenylpropan-1-ol",,CC(C)(CO)Cc1ccccc1,VNGAHMPMLRTSLF-UHFFFAOYSA-N,-2.042313822
"1,1,1-trifluoroethane",,CC(F)(F)F,UJPMYEOUBPIPHQ-UHFFFAOYSA-N,-2.043101387
"3-methyl-2,4,6-trinitrophenol",,Cc1c(cc(c(O)c1[N+]([O-])=O)[N+]([O-])=O)[N+]([O-])=O,YYGJRRYSYLLCQH-UHFFFAOYSA-N,-2.0434
"4,6-dichloro-o-cresol",,Cc1cc(Cl)cc(Cl)c1O,WJQZZLQMLJPKQH-UHFFFAOYSA-N,-2.0439
"3,4-dichlorobenzyl alcohol",,OCc1ccc(Cl)c(Cl)c1,FVJIUQSKXOYFKG-UHFFFAOYSA-N,-2.0439
"2-ethylhexanoic acid, manganese salt",,[Mn++].CCCCC(CC)C(O)=O,ODUSECXQXODQGI-UHFFFAOYSA-N,-2.043912167
4-methyl-2-pentyl acetate,,CC(C)CC(C)OC(C)=O,CPIVYSAVIPTCCX-UHFFFAOYSA-N,-2.0451
3-methyl-2-[(2E)-pent-2-en-1-yl]cyclopent-2-en-1-one,,CC\C=C/CC1=C(C)CCC1=O,XMLSXPIVAXONDL-PLNGDYQASA-N,-2.045238375
disodium 7-anilino-4-hydroxy-3-({2-methoxy-5-methyl-4-[(4-sulfonatophenyl)diazenyl]phenyl}diazenyl)naphthalene-2-sulfonate,,[Na+].[Na+].COc1cc(N=Nc2ccc(cc2)[S]([O-])(=O)=O)c(C)cc1N\N=C/3C(=O)c4ccc(Nc5ccccc5)cc4C=C3[S]([O-])(=O)=O,FXQXWRHUUBSXMQ-DFLIUALPSA-L,-2.045401474
chlorendic acid,,OC(=O)C1C(C(O)=O)C2(Cl)C(=C(Cl)C1(Cl)C2(Cl)Cl)Cl,DJKGDNKYTKCJKD-UHFFFAOYSA-N,-2.0457
propiophenone,,CCC(=O)c1ccccc1,KRIOVPPHQSLHCZ-UHFFFAOYSA-N,-2.048500068
"benzoic acid, 2,6-dihydroxy-4-methyl-",,Cc1cc(O)c(C(O)=O)c(O)c1,YBZAVRDNSPUMFK-UHFFFAOYSA-N,-2.0496
4-hydroxy-3-methoxybenzoic acid,,COc1cc(ccc1O)C(O)=O,WKOLLVMJNQIZCI-UHFFFAOYSA-N,-2.0496
"benzenamine, n,3-dimethyl-",,CNc1cccc(C)c1,FBGJJTQNZVNEQU-UHFFFAOYSA-N,-2.05
5-fluoro-2-nitrophenol,,Oc1cc(F)ccc1[N+]([O-])=O,QQURWFRNETXFTN-UHFFFAOYSA-N,-2.05
2-bromobenzoic acid,,OC(=O)C1=C(Br)C=CC=C1,XRXMNWGCKISMOH-UHFFFAOYSA-N,-2.05
"2-sulfamoyl-4-methyl-5-mesylimido-1,3,4-thiadiazoline;  nr.29",,CN1N=C(SC1=N[S](C)(=O)=O)[S](N)(=O)=O,RNJWMMREPOUHCP-UHFFFAOYSA-N,-2.05
2-chloro-4-[(4-'acetylpiperazin-1'-yl)acryloyl]phenyl   benzodioxan-6''-yl  sulfide,,CC(=O)N1CCN(CC1)C(=O)/C=C/C2=CC(=C(SC3=CC4=C(OCCO4)C=C3)C=C2)Cl,PZJWSJORJOUILO-XVNBXDOJSA-N,-2.05
4-[4-[(2-methylpropylamino)methyl]benzoyl]thiophene-2-sulfonamide,,CC(C)CNCC1=CC=C(C(=O)C2=CSC(S(N)(=O)=O)=C2)C=C1,LMVXPRMBXRSEED-UHFFFAOYSA-N,-2.05
4-[3-[(2-methylpropylamino)methyl]benzoyl]thiophene-2-sulfonamide,,CC(C)CNCC1=CC=CC(C(=O)C2=CSC(S(N)(=O)=O)=C2)=C1,CQEBIGVQAVNPFP-UHFFFAOYSA-N,-2.05
metamitron,,CC1=NN=C(c2ccccc2)C(=O)N1N,VHCNQEUWZYOAEV-UHFFFAOYSA-N,-2.0506
"disodium 5-benzamido-4-hydroxy-3-[(E)-2-[2-(2-methylphenoxy)phenyl]diazen-1-yl]naphthalene-2,7-disulfonate",,[Na+].[Na+].Cc1ccccc1Oc2ccccc2N\N=C/3C(=O)c4c(NC(=O)c5ccccc5)cc(cc4C=C3[S]([O-])(=O)=O)[S]([O-])(=O)=O,DBWPJEFEDHFXDH-RAHJWFRPSA-L,-2.050671467
4-phenylbut-3-en-2-one,,CC(=O)\C=C\c1ccccc1,BWHOZHOGCMHOBV-BQYQJAHWSA-N,-2.050971343
propoxur,,CNC(=O)Oc1ccccc1OC(C)C,ISRUGXGCCGIOQO-UHFFFAOYSA-N,-2.0512
Neomycin B Sulfate,CAS4146-30-9,NC[C@H]1O[C@H](O[C@@H]2[C@@H](N)C[C@@H](N)[C@H](O)[C@H]2OC2O[C@H](CO)[C@@H](O[C@@H]3O[C@H](CN)[C@H](O)[C@@H](O)[C@@H]3N)[C@H]2O)[C@H](N)[C@@H](O)[C@@H]1OS(=O)(=O)O,WTGHGXUHKQDLAT-WGDWHHIISA-N,-2.05
"quinoline, 2-(nitromethyl)-",,[O-][N+](=O)Cc1ccc2ccccc2n1,SIQRLWJNWZCECZ-UHFFFAOYSA-N,-2.0545
"2,4,6-trimethylphenol",,Cc1cc(C)c(O)c(C)c1,BPRYUXCVCCNUFE-UHFFFAOYSA-N,-2.055
"3-[(2-ethylhexyl)oxy]propane-1,2-diol",,CCCCC(CC)COCC(O)CO,NCZPCONIKBICGS-UHFFFAOYSA-N,-2.055017119
"3,4-dichlorobut-1-ene",,ClCC(Cl)C=C,XVEASTGLHPVZNA-UHFFFAOYSA-N,-2.055510379
"phthalic acid, 4-nitro-, 1-methyl ester",,COC(=O)c1ccc(cc1C([O-])=O)[N+]([O-])=O,CEEJSCAKNYSVHF-UHFFFAOYSA-M,-2.0558
heptenophos,,CO[P](=O)(OC)OC1=C(Cl)CC2C=CC12,BFESKOTYBVOOQX-UHFFFAOYSA-N,-2.0566
atropic acid,,OC(=O)C(=C)c1ccccc1,ONPJWQSDZCGSQM-UHFFFAOYSA-N,-2.0568
"[4-[(4-diethylaminophenyl)-phenylmethylidene]-1-cyclohexa-2,5-dienylidene]-diethylazanium; hydrogen sulfate",,CCN(CC)c1ccc(cc1)[C+](c2ccccc2)c3ccc(cc3)N(CC)CC.O[S]([O-])(=O)=O,NNBFNNNWANBMTI-UHFFFAOYSA-M,-2.057288344
prothoate,,CCO[P](=S)(OCC)SCC(=O)NC(C)C,QTXHFDHVLBDJIO-UHFFFAOYSA-N,-2.0575
3-methyl-2-heptanol,,CCCCC(C)C(C)O,SZERMVMTUUAYML-UHFFFAOYSA-N,-2.0578
thiazafluron,,CNC(=O)N(C)c1sc(nn1)C(F)(F)F,BBJPZPLAZVZTGR-UHFFFAOYSA-N,-2.0584
"1,4-cyclohexadiene",,C1C=CCC=C1,UVJHQYIOXKWHFD-UHFFFAOYSA-N,-2.0587
paraoxon,,CCO[P](=O)(OCC)Oc1ccc(cc1)[N+]([O-])=O,WYMSBXTXOHUIGT-UHFFFAOYSA-N,-2.0594
Citral,,O=CC=C(CCC=C(C)C)C,WTEVQBCEXWBHNA-UHFFFAOYSA-N,-2.06
cyclohexylsulfonylcyclohexane,,O=S(=O)(C1CCCCC1)C1CCCCC1,MZUPWNMULGRONZ-UHFFFAOYSA-N,-2.06
2-amino-5-hydroxynaphthalene-1-sulfonic acid,,NC1=CC=C2C(O)=CC=CC2=C1S(=O)(=O)O,VNIRTZCEEXVSGC-UHFFFAOYSA-N,-2.06
"5,5-di(ethenyl)-1,3-diazinane-2,4,6-trione",,C=CC1(C=C)C(=O)NC(=O)NC1=O,HHIKNUPAMVGRFX-UHFFFAOYSA-N,-2.06
isocil,,CC(C)N1C(=O)NC(=C(Br)C1=O)C,PSYBGEADHLUXCS-UHFFFAOYSA-N,-2.0604
(r)-(-)-carvone,,CC(=C)[C@@H]1CC=C(C)C(=O)C1,ULDHMXUKGWMISQ-SECBINFHSA-N,-2.0608
allobarbital,,C=CCC1(CC=C)C(=O)NC(=O)NC1=O,FDQGNLOWMMVRQL-UHFFFAOYSA-N,-2.0608
3-nitroaniline,,Nc1cccc(c1)[N+]([O-])=O,XJCVRTZCHMZPBD-UHFFFAOYSA-N,-2.0611
Bopindolol,CAS62658-63-3,Cc1cc2c(OCC(CNC(C)(C)C)OC(=O)c3ccccc3)cccc2[nH]1,UUOJIACWOAYWEZ-UHFFFAOYSA-N,-2.06
naphthalen-1-ol,,Oc1cccc2ccccc12,KJCVRFUGPWSIIH-UHFFFAOYSA-N,-2.061973923
o-toluic acid,,Cc1ccccc1C(O)=O,ZWLPBLYKEWSWPD-UHFFFAOYSA-N,-2.0621
"pentane, 3,3-bis(ethylsulfonyl)-",,CCC(CC)([S](=O)(=O)CC)[S](=O)(=O)CC,VTZYVPLHCQBWSP-UHFFFAOYSA-N,-2.0625
Timolol,CAS26839-75-8,CC(C)(C)NC[C@H](O)COc1nsnc1N1CCOCC1,BLJRIMJGRPQVNF-JTQLQIEISA-N,-2.06
Entecavir,CAS142217-69-4,C=C1[C@@H](n2cnc3c(=O)[nH]c(N)nc32)C[C@H](O)[C@H]1CO,QDGZDCVAUDNJFG-FXQIFTODSA-N,-2.06
carvone,,CC(=C)C1CC=C(C)C(=O)C1,ULDHMXUKGWMISQ-UHFFFAOYSA-N,-2.0628
"hexanedioic acid, bis(2-ethoxyethyl) ester",,CCOCCOC(=O)CCCCC(=O)OCCOCC,NJEMMCIKSMMBDM-UHFFFAOYSA-N,-2.065
"diallyl oxydiethane-2,1-diyl biscarbonate",,C=CCOC(=O)OCCOCCOC(=O)OCC=C,JHQVCQDWGSXTFE-UHFFFAOYSA-N,-2.06526472
2-octanol,,CCCCCCC(C)O,SJWFXCIHNDVPSH-UHFFFAOYSA-N,-2.0655
"pyrido[3,2-d]pyrimidin-4(1h)-one",,O=C1N=CNc2cccnc12,FSKYZRCACCHDGR-UHFFFAOYSA-N,-2.0656
4-phenylcatechol,,Oc1ccc(cc1O)c2ccccc2,QDNPCYCBQFHNJC-UHFFFAOYSA-N,-2.0659
Bortezomib,CAS179324-69-7,CC(C)C[C@H](NC(=O)[C@H](Cc1ccccc1)NC(=O)c1cnccn1)B(O)O,GXJABQQUPOEUTA-RDJZCZTQSA-N,-2.07
p-fluorobenzoic acid,,OC(=O)c1ccc(F)cc1,BBYDXOIZLAWGSL-UHFFFAOYSA-N,-2.0673
indole-3-acetic acid,,OC(=O)Cc1c[nH]c2ccccc12,SEOVTRFCIGRIMH-UHFFFAOYSA-N,-2.0674
"tert-butyl 2,2-dimethylpropaneperoxoate",,CC(C)(C)OOC(=O)C(C)(C)C,OPQYOFWUFGEMRZ-UHFFFAOYSA-N,-2.067961594
4-(propan-2-yl)cyclohexan-1-ol,,CC(C)C1CCC(O)CC1,DKKRDMLKVSKFMJ-UHFFFAOYSA-N,-2.068094275
sodium 6-amino-4-hydroxy-5-[(E)-2-[2-(trifluoromethyl)phenyl]diazen-1-yl]naphthalene-2-sulfonate,,[Na+].[O-][S](=O)(=O)C1=CC(=O)C2=C(NNc3ccccc3C(F)(F)F)C(=N)C=CC2=C1,GVCNKWIFAPJNDM-UHFFFAOYSA-M,-2.068630062
atratone,,CCNc1nc(NC(C)C)nc(OC)n1,PXWUKZGIHQRDHL-UHFFFAOYSA-N,-2.0696
Vasicinone,,c1ccc2C(O)N3CCC(O)C3=Nc2c1,AKRGPMZFCFDFQW-UHFFFAOYSA-N,-2.07
2-[[2-amino-3-(4-hydroxyphenyl)propanoyl]amino]-4-methylpentanoic acid,,CC(C)CC(NC(=O)C(N)CC1=CC=C(O)C=C1)C(=O)O,AUEJLPRZGVVDNU-UHFFFAOYSA-N,-2.07
bis(propan-2-yloxy)titaniumbis(ylium) bis((2Z)-4-oxopent-2-en-2-olate),,[Ti+4].CC(C)[O-].CC(C)[O-].CC(=O)[CH-]C(C)=O.CC(=O)[CH-]C(C)=O,DOOBMVWXHWRGEB-UHFFFAOYSA-N,-2.070050982
"benzoic acid, 2-(diethylamino)-2-oxoethyl ester",,CCN(CC)C(=O)COC(=O)c1ccccc1,MTAAHMQCSJMGHI-UHFFFAOYSA-N,-2.0706
5-chloro-2-methylaniline,,Cc1ccc(Cl)cc1N,WRZOMWDJOLIVQP-UHFFFAOYSA-N,-2.071885074
tricyclazole,,Cc1cccc2sc3nncn3c12,DQJCHOQLCLEDLL-UHFFFAOYSA-N,-2.0729
2-nitroresorcinol,,Oc1cccc(O)c1[N+]([O-])=O,ZLCPKMIJYMHZMJ-UHFFFAOYSA-N,-2.0734
3-(methoxycarbonyl)-5-nitrobenzoic acid,,COC(=O)c1cc(cc(c1)[N+]([O-])=O)C(O)=O,ZCRNIIJXDRYWDU-UHFFFAOYSA-N,-2.073729924
Cisplatin,CAS15663-27-1,CC1=CN(C(=O)NC1=O)C2CC(C(O2)COP(=O)(O)OC3CC(OC3CO)N4C=NC5=C(N=CN=C54)N)OP(=O)(O)OCC6C(CC(O6)N7C=NC8=C(N=CN=C87)N)OP(=O)(O)OC9C(CC(O9)N1C=NC2=C1N=C(NC2=O)N)O.N.[NH2-].[NH2-].[Pt+2],UZXRICATRQGMQT-UHFFFAOYSA-N,-2.07
cis-platin,,N.N.[Cl-].[Cl-].[Pt++],LXZZYRPGZAFOLE-UHFFFAOYSA-L,-2.0741
"1,3-dibromopropane",,BrCCCBr,VEFLKXRACNJHOV-UHFFFAOYSA-N,-2.0747
"2,5-dichloroanilinium chloride",,[H+].[Cl-].Nc1cc(Cl)ccc1Cl,ZALVJCYWUBQENP-UHFFFAOYSA-N,-2.07500028
Levodopa,CAS59-92-7,N[C@@H](Cc1ccc(O)c(O)c1)C(=O)O,WTDRDQBEARUVNC-LURJTMIESA-N,-2.08
dionine,,CCOc1ccc2C[C@@H]3[C@@H]4C=C[C@H](O)[C@@H]5Oc1c2[C@]45CCN3C,OGDVEMNWJVYAJL-LEPYJNQMSA-N,-2.079
"phenol, 2-methyl-5-(1-methylethyl)-",,CC(C)c1ccc(C)c(O)c1,RECUKUPTGUEGMW-UHFFFAOYSA-N,-2.0798
"ethyl  2,2-diethylmalonurate",,CCOC(=O)C(CC)(CC)C(=O)NC(N)=O,KIOURYUVFMVQEI-UHFFFAOYSA-N,-2.08
n-(2-benzoyloxyacetyl)proline methyl ester,,COC(=O)C1CCCN1C(=O)COC(=O)C2=CC=CC=C2,UQIKOYWGLUXMNE-UHFFFAOYSA-N,-2.08
Tranid,,CNC(=O)ON=C1C(C2)C(C#N)CC2C1Cl,QCQPGRMMDFIQMB-UHFFFAOYSA-N,-2.08
"4-Amino-6,7-dimethoxy-2-benzofuran-1(3H)-one",,COC1=C(OC)C2=C(COC2=O)C(N)=C1,TZIOSYAVRCFFSO-UHFFFAOYSA-N,-2.08
"benzamide, 2-amino-3,5-dichloro-",,NC(=O)c1cc(Cl)cc(Cl)c1N,PRKRQUUATBDWTL-UHFFFAOYSA-N,-2.0814
tranid,,CNC(=O)O\N=C1/[C@@H](Cl)C2C[C@H](C#N)C1C2,QCQPGRMMDFIQMB-WDAIPKEHSA-N,-2.0822
(2E)-3-phenylprop-2-enenitrile,,N#C/C=C/c1ccccc1,ZWKNLRXFUTWSOY-QPJJXVBHSA-N,-2.082970342
(e)-But-2-enedioate,,[Fe++].[O-]C(=O)\C=C/C([O-])=O,PMVSDNDAUGGCCE-ODZAUARKSA-L,-2.084067899
"l-proline, n-[(benzoyloxy)acetyl]-, methyl ester",,COC(=O)[C@@H]1CCCN1C(=O)COC(=O)c2ccccc2,UQIKOYWGLUXMNE-LBPRGKRZSA-N,-2.0841
2-iodopropane,,CC(C)I,FMKOJHQHASLBPH-UHFFFAOYSA-N,-2.0843
"1,2-benzenedicarboxylic acid, 3-nitro-, 2-methyl",,COC(=O)c1c(cccc1[N+]([O-])=O)C(O)=O,UTEQVEMDYYOJGM-UHFFFAOYSA-N,-2.0853
"1,4-pentadiene",,C=CCC=C,QYZLKGVUSQXAMU-UHFFFAOYSA-N,-2.0866
p-cyanobenzoic acid,,OC(=O)c1ccc(cc1)C#N,ADCUEPOHPCPMCE-UHFFFAOYSA-N,-2.0885
pyrolan,,CN(C)C(=O)Oc1cc(C)nn1c2ccccc2,GEDIWDLJKRKBFT-UHFFFAOYSA-N,-2.0886
"2-furancarboxylic acid, 3,4-dibromo-",,OC(=O)c1occ(Br)c1Br,ISBXWVSYAWHMSU-UHFFFAOYSA-N,-2.0887
sodium 7-amino-8-[(E)-2-[2-(benzenesulfonyl)phenyl]diazen-1-yl]-3-sulfonaphthalen-1-olate,,[Na+].[O-][S](=O)(=O)C1=CC(=O)C2=C(NNc3ccccc3[S](=O)(=O)c4ccccc4)C(=N)C=CC2=C1,BGMJITJZTOJVQD-UHFFFAOYSA-M,-2.088831676
"dimethachlor;  2-chloro-n-(2,6-dimethylphenyl)-n-(2-methoxyethyl)acetamide",,COCCN(C(=O)CCl)C1=C(C)C=CC=C1C,SCCDDNKJYDZXMM-UHFFFAOYSA-N,-2.09
"1,2,4-trimethyl-1,2,3,4-tetrahydro-2,4a,9-triazaanthracen-10-one; trimethylpyridoquinazolone",,CC1CN(C)C(C)C2=NC3=C(C=CC=C3)C(=O)N12,XURLBPGUZQJXEK-UHFFFAOYSA-N,-2.09
"1,5-dimethyl-2,4,6,8-tetrazabicyclo[3.3.1]nonane-3,7-dione",,CC12CC(C)(NC(=O)N1)NC(=O)N2,QFMIBLGAFJGHNN-UHFFFAOYSA-N,-2.09
"1,4-Dipentadiene  ",,C=CC=C(C)C=CC=CC,JXQNEJRKTHOCGQ-UHFFFAOYSA-N,-2.09
brucine,,COc1cc2N3C4[C@@H]5C(CC3=O)OCC=C6CN7CC[C@]4([C@@H]7C[C@H]56)c2cc1OC,RRKTZKIUPZVBMF-PLNGPGDESA-N,-2.0909
3-methylacetanilide,,CC(=O)Nc1cccc(C)c1,ALMHSXDYCFOZQD-UHFFFAOYSA-N,-2.091
Imazapic,,CC(C)C1(C)N=C(NC1=O)c2ncc(C)cc2C(O)=O,PVSGXWMWNRGTKE-UHFFFAOYSA-N,-2.0911
ethiofencarb,,CCSCc1ccccc1OC(=O)NC,HEZNVIYQEUHLNI-UHFFFAOYSA-N,-2.0927
4-methylacetanilide,,CC(=O)Nc1ccc(C)cc1,YICAMJWHIUMFDI-UHFFFAOYSA-N,-2.0946
4-(butoxymethyl)-2-methoxyphenol,,CCCCOCc1ccc(O)c(OC)c1,VLDFMKOUUQYFGF-UHFFFAOYSA-N,-2.094896806
n-nitrosodibutylamine,,CCCCN(CCCC)N=O,YGJHZCLPZAZIHH-UHFFFAOYSA-N,-2.0955
"dl-phenylalanine, n-(aminocarbonyl)-",,NC(=O)N[C@@H](Cc1ccccc1)C([O-])=O,IPWQOZCSQLTKOI-QMMMGPOBSA-M,-2.0958
"6,6-dimethyl-2-methylidenebicyclo[3.1.1]heptan-3-ol",,CC1(C)C2CC(O)C(=C)C1C2,LCYXQUJDODZYIJ-UHFFFAOYSA-N,-2.09612479
trichlorofluoromethane,,FC(Cl)(Cl)Cl,CYRMSUTZVYGINF-UHFFFAOYSA-N,-2.0965
"5-pyrimidinecarboxylic aicd, 1,2,3,4-tetrahydro-",,CCOC(=O)C1=CNC(=S)NC1=O,FQFSHLBWRUOCPX-UHFFFAOYSA-N,-2.0985
hydroxycinnamic acid,,OC(=O)\C=C/c1cccc(O)c1,KKSDGJDHHZEWEP-PLNGDYQASA-N,-2.099
Chlorpropamide,CAS94-20-2,CCCNC(=O)NS(=O)(=O)c1ccc(Cl)cc1,RKWGIWYCVPQPMF-UHFFFAOYSA-N,-2.1
"metharbital;  5,5-diethyl-1-methylbarbituric acid",,CCC1(CC)C(=O)NC(=O)N(C)C1=O,FWJKNZONDWOGMI-UHFFFAOYSA-N,-2.1
hydromorphone;  dihydromorphinone,,CN1CCC23C4CCC(=O)C2OC5=C(O)C=CC(=C35)CC14,WVLOADHCBXTIJK-UHFFFAOYSA-N,-2.1
n-isonicotinoyl-n'-heptanoylhydrazine,,CCCCCCC(=O)NNC(=O)C1=CC=NC=C1,XHGIJBYHKSZCDJ-UHFFFAOYSA-N,-2.1
vasicinone,,OC1CCN2C(=O)C3=C(C=CC=C3)N=C12,SDIVYZXRQHWCKF-UHFFFAOYSA-N,-2.1
"1,2,2-triacetyloxyethyl acetate",,CC(=O)OC(OC(C)=O)C(OC(C)=O)OC(C)=O,IXUDSZCEDKQCIV-UHFFFAOYSA-N,-2.1
2-(2-chlorophenoxy)-3-oxobutanoic acid,,CC(=O)C(OC1=C(Cl)C=CC=C1)C(=O)O,KDAWJQRXGKJCOJ-UHFFFAOYSA-N,-2.1
"24nh2pyrimidine,5(35-meo-4-oetome)benzyl",,COCCOc1c(OC)cc(Cc2cnc(N)nc2N)cc1OC,WSWJIZXMAUYHOE-UHFFFAOYSA-N,-2.101
"2,6-dichlorobenzyl alcohol",,OCc1c(Cl)cccc1Cl,WKKHCCZLKYKUDN-UHFFFAOYSA-N,-2.1019
"disodium {1-ethyl-5-[(E)-2-(4-{4-[(E)-2-[1-ethyl-2-hydroxy-4-methyl-6-oxo-5-(sulfonatomethyl)-1,6-dihydropyridin-3-yl]diazen-1-yl]benzenesulfonyl}phenyl)diazen-1-yl]-6-hydroxy-4-methyl-2-oxo-1,2-dihydropyridin-3-yl}methanesulfonate",,[Na+].[Na+].CCN1C(=C(N=Nc2ccc(cc2)[S](=O)(=O)c3ccc(cc3)N=NC4=C(O)N(CC)C(=O)C(=C4C)C[S]([O-])(=O)=O)C(=C(C[S]([O-])(=O)=O)C1=O)C)O,CMXLXDYHEIIMLD-UHFFFAOYSA-L,-2.10218738
"4-oxo-1,2,3,4-tetrahydro-<2>naphthoic acid",,OC(=O)C1CC(=O)c2ccccc2C1,UYNMKOITXUEVCZ-UHFFFAOYSA-N,-2.1031
cyclopentene,,C1CC=CC1,LPIQUOYDBNQMRZ-UHFFFAOYSA-N,-2.104914482
"2-amino-4,5-dichlorobenzene-1-sulfonic acid",,Nc1cc(Cl)c(Cl)cc1[S](O)(=O)=O,AKLDPNVZTZIVFA-UHFFFAOYSA-N,-2.105210692
"o-diselenane-3,6-dicarboxylic acid, trans-(+)-",,OC(=O)[C@H]1CC[C@@H]([Se][Se]1)C(O)=O,JAGJLCZKVMJJDA-QWWZWVQMSA-N,-2.1053
"(4-(4-aminophenyl)(4-iminocyclohexa-2,5-dienylidene)methyl)-2-methylaniline hydrochloride",,[H+].[Cl-].CC1=CC(C=CC1=N)=C(c2ccc(N)cc2)c3ccc(N)cc3,AXDJCCTWPBKUKL-UHFFFAOYSA-N,-2.105483191
"acetamide, n-(4-ethoxyphenyl)-2-hydroxy-",,CCOc1ccc(NC(=O)CO)cc1,UJUHYRDNSIRHHG-UHFFFAOYSA-N,-2.1058
"pyrrolo[2,1-b]quinazolin-9(1h)-one,2,3-dihydro-3",,O[C@H]1CCN2C(=O)c3ccccc3N=C12,SDIVYZXRQHWCKF-VIFPVBQESA-N,-2.106
strontium tartarate,,[Sr].OC(C(O)C(O)=O)C(O)=O,YRUOECKPPZQJHI-UHFFFAOYSA-N,-2.1065272
"(n,n-diethyl)carbamoylmethyl  acetylsalicylate;  n,n-diethyl-2-(2-acetoxybenzoyloxy)acetamide",,CCN(CC)C(=O)COC(=O)C1=CC=CC=C1OC(C)=O,HEFOCUJBDCFYAR-UHFFFAOYSA-N,-2.11
"2-hydroxyisophthalic acid; 2-hydroxy-1,3-benzenedicarboxylic acid",,OC(=O)C1=C(O)C(=CC=C1)C(O)=O,WVDGHGISNBRCAO-UHFFFAOYSA-N,-2.11
3-hydroxyphthalic acid,,OC(=O)C1=CC=CC(=C1C(O)=O)O,MNUOZFHYBCRUOD-UHFFFAOYSA-N,-2.11
5-fluorouracil-3-methyl  hexanoate;  3-hexanoyloxymethyl-5-fluorouracil,,CCCCCC(=O)OCN1C(=O)NC=C(F)C1=O,OGJBAUXBDQIJFS-UHFFFAOYSA-N,-2.11
"(2Z,4Z,2'E,4'E)-4,4'-[(1S,2S)-1,2-Cyclohexanediyldinitrilo]bis(2-penten-2-ol)",,CC(=O)C=C(C)NC1CCCCC1NC(C)=CC(C)=O,QNIPROSCSFQJIO-UHFFFAOYSA-N,-2.11
3-(2-oxo-4-propylpyridin-1-yl)propanoic acid,,CCCC1=CC(=O)N(CCC(=O)O)C=C1,SJXAVXUWKIGGJR-UHFFFAOYSA-N,-2.11
"14-hydroxy-8,16-diazahexacyclo[11.5.2.1^{1,8}.0^{2,7}.0^{16,19}.0^{12,21}]henicosa-2,4,6,10-tetraene-9,15-dione",,O=C1C(O)C2CC3N1CCC31C3=C(C=CC=C3)N3C(=O)C=CC2C31,GGPNRMYEAUWVHU-UHFFFAOYSA-N,-2.11
3-methyl-4-nitrophenol,,Cc1cc(O)ccc1[N+]([O-])=O,PIIZYNQECPTVEO-UHFFFAOYSA-N,-2.1103
4-[(3-hydroxypropyl)amino]-3-nitrophenol,,OCCCNc1ccc(O)cc1[N+]([O-])=O,VTXBLQLZQLHDIL-UHFFFAOYSA-N,-2.11058971
demeton-s,,CCO[P](=O)(OCC)SCCSCC,GRPRVIYRYGLIJU-UHFFFAOYSA-N,-2.1112
"9,9-dimethyldecanoic acid",,CC(C)(C)CCCCCCCC(O)=O,FZUWYUIYVKESIP-UHFFFAOYSA-N,-2.111396949
chloramphenicol,,OCC(NC(=O)C(Cl)Cl)C(O)c1ccc(cc1)[N+]([O-])=O,WIIZWVCIJKGZOK-UHFFFAOYSA-N,-2.1114
Chloramphenicol,CAS56-75-7,O=C(N[C@H](CO)[C@H](O)c1ccc([N+](=O)[O-])cc1)C(Cl)Cl,WIIZWVCIJKGZOK-RKDXNWHRSA-N,-2.11
(3Z)-hex-3-en-1-yl acetate,,CC\C=C/CCOC(C)=O,NPFVOOAXDOBMCE-PLNGDYQASA-N,-2.111500803
2-octanamidoacetic acid,,CCCCCCCC(=O)NCC(O)=O,SAVLIIGUQOSOEP-UHFFFAOYSA-N,-2.111537593
"2,4(1h,3h)-pteridinedione, 1,6,7-trimethyl-",,CN1C(=O)NC(=O)c2nc(C)c(C)nc12,XCOSZAUDQCILGD-UHFFFAOYSA-N,-2.1129
1-phenylvinyl acetate,,CC(=O)OC(=C)c1ccccc1,HWCUCNKPBMGSSC-UHFFFAOYSA-N,-2.113595388
adenine,,Nc1ncnc2nc[nH]c12,GFFGJBXGBJISGV-UHFFFAOYSA-N,-2.1179
lumazine,,O=C1NC(=O)c2nccnc2N1,UYEUUXMDVNYCAM-UHFFFAOYSA-N,-2.1183
butalbital,,CC(C)CC1(CC=C)C(=O)NC(=O)NC1=O,UZVHFVZFNXBMQJ-UHFFFAOYSA-N,-2.1193
"benzaldehyde, 3,4,5-trimethoxy-",,COc1cc(C=O)cc(OC)c1OC,OPHQOIGEOHXOGX-UHFFFAOYSA-N,-2.1195
7-pteridinone;  8h-pteridin-7-one,,O=C1NC2=C(C=NC=N2)N=C1,OOIPDYWPGUHUJW-UHFFFAOYSA-N,-2.12
7-pentanoyltheophylline,,CCCCC(=O)[N]1C=NC2=C1C(=O)N(C)C(=O)N2C,SJVQUFBQNJUYFR-UHFFFAOYSA-N,-2.12