Name,ID,SMILES,inchi,LogS
4-methyl-2-(2-methylpropyl)oxan-4-ol,,CC(C)CC1CC(C)(O)CCO1,YVSNOTITPICPTB-UHFFFAOYSA-N,2.13768162
bis(tetrakis(hydroxymethyl)phosphanium) sulfate,,OC[P+](CO)(CO)CO.OC[P+](CO)(CO)CO.[O-][S]([O-])(=O)=O,YIEDHPBKGZGLIK-UHFFFAOYSA-L,1.9675127
ammonium bromide,,[NH4+].[Br-],SWLVFNYSXGMGBS-UHFFFAOYSA-N,1.908299785
azanium 2-hydroxyacetate,,[NH4+].OCC([O-])=O,UBKBVPONTPMQQW-UHFFFAOYSA-N,1.700915909
Chloral Hydrate,CAS302-17-0,OC(O)C(Cl)(Cl)Cl,RNFNDJAIBTYOQL-UHFFFAOYSA-N,1.7
hydrogen fluoride,,[H+].[F-],KRHYYFGTRYWZRS-UHFFFAOYSA-N,1.6988
"2-Hydroxy-N,N-dimethylpropanamide",,CC(O)C(=O)N(C)C,YEBLAXBYYVCOLT-UHFFFAOYSA-N,1.630235126
"hexane-1,6-diol",,OCCCCCCO,XXMIOPMDWAUFGU-UHFFFAOYSA-N,1.626440718
hydrazine dihydrochloride,,[H+].[Cl-].NN,BIVUUOPIAYRCAP-UHFFFAOYSA-N,1.595628815
"9-[2-(2-methoxyethoxy)ethoxy]-9-[3-(oxiran-2-ylmethoxy)propyl]-2,5,8,10,13,16-hexaoxa-9-silaheptadecane",,COCCOCCO[Si](CCCOCC1CO1)(OCCOCCOC)OCCOCCOC,BAPRPWHVXHPSHD-UHFFFAOYSA-N,1.582313338
acetamide,,CC(N)=O,DLFVBJFMPXGRIB-UHFFFAOYSA-N,1.5808
dimethyl {3-[(hydroxymethyl)amino]-3-oxopropyl}phosphonate,,CO[P](=O)(CCC(=O)NCO)OC,MCONGYNHPPCHSD-UHFFFAOYSA-N,1.578490674
hydrocyanic acid,,C#N,LELOWRISYMNNSU-UHFFFAOYSA-N,1.5682
N-methylmethanaminium chloride,,[H+].[Cl-].CNC,IQDGSYLLQPDQDV-UHFFFAOYSA-N,1.565718592
dimethylamine,,CNC,ROSDSFDQCJNGOL-UHFFFAOYSA-N,1.558
"but-2-yne-1,4-diol",,OCC#CCO,DLDJFQGPPSQZKI-UHFFFAOYSA-N,1.536339003
"decane-1,10-diamine",,NCCCCCCCCCCN,YQLZOAVZWJBZSY-UHFFFAOYSA-N,1.527701003
methanol,,CO,OKKJLVBELUTLKV-UHFFFAOYSA-N,1.494280384
hydrazine,,NN,OAKJQQAXSVQMHS-UHFFFAOYSA-N,1.4942
2-methyl-2-nitro-1-propanol,,CC(C)(CO)[N+]([O-])=O,MVGJRISPEUZYAQ-UHFFFAOYSA-N,1.4681
ammonia,,N,QGZKDVFQNNGYKY-UHFFFAOYSA-N,1.451806889
1-ethyl-1-methylpyrrolidin-1-ium bromide,,[Br-].CC[N+]1(C)CCCC1,KHJQQUGSPDBDRM-UHFFFAOYSA-M,1.410187143
bromide,,[H+].[Br-],CPELXLSAUQHCOX-UHFFFAOYSA-N,1.377544373
manganese(2+) dinitrate,,[Mn++].[O-][N+]([O-])=O.[O-][N+]([O-])=O,MIVBAHRSNUNMPP-UHFFFAOYSA-N,1.377095201
methanamine,,CN,BAVYZALUXZFZLV-UHFFFAOYSA-N,1.368643478
aziridine,,C1CN1,NOWKCMXCCJGMRR-UHFFFAOYSA-N,1.365835212
oxoselane oxide,,O=[Se]=O,JPJALAQPGMAKDF-UHFFFAOYSA-N,1.364774503
acetaldehyde,,CC=O,IKHGUXGNUITLKF-UHFFFAOYSA-N,1.3561
ethylene oxide,,C1CO1,IAYPIBMASNFSPL-UHFFFAOYSA-N,1.356
guanidine hydrochloride,,[H+].[Cl-].NC(N)=N,PJJJBBJSCAKJQF-UHFFFAOYSA-N,1.352285044
formamide,,NC=O,ZHNUHDYFZUAESO-UHFFFAOYSA-N,1.346391976
ethylamine,,CCN,QUSNBJAOOMFDIB-UHFFFAOYSA-N,1.346
methylhydrazine,,CNN,HDZGCSFEDULWCS-UHFFFAOYSA-N,1.336553508
tetrabutylazanium bromide,,[Br-].CCCC[N+](CCCC)(CCCC)CCCC,JRMUNVKIHCOMHV-UHFFFAOYSA-M,1.332024844
lithium(1+) ion bromide,,[Li+].[Br-],AMXOYNBUYSYVKV-UHFFFAOYSA-M,1.32370627
(2R)-2-hydroxy-N-(2-hydroxyethyl)propanamide,,CC(O)C(=O)NCCO,RZCHTMXTKQHYDT-UHFFFAOYSA-N,1.307032379
zinc dibromide,,[Zn++].[Br-].[Br-],VNDYJBBGRKZCSX-UHFFFAOYSA-L,1.297742994
1H-pyrazole,,[nH]1cccn1,WTKZEGDFNFYCGP-UHFFFAOYSA-N,1.28788965
"1,8-anthraquinonedisulfonic acid",,O[S](=O)(=O)c1cccc2C(=O)c3cccc(c3C(=O)c12)[S](O)(=O)=O,IJNPIHLZSZCGOC-UHFFFAOYSA-N,1.2572
prop-2-yn-1-ol,,OCC#C,TVDSBUOJIPERQY-UHFFFAOYSA-N,1.25131592
disodium sulfanediide,,[Na+].S,HYHCSLBZRBJJCH-UHFFFAOYSA-N,1.243569299
2-methylaziridine,,CC1CN1,OZDGMOYKSFPLSE-UHFFFAOYSA-N,1.2434
allylamine,,NCC=C,VVJKKWFAADXIJK-UHFFFAOYSA-N,1.2434
cyclopropanamine,,NC1CC1,HTJDQJBWANPRPF-UHFFFAOYSA-N,1.243394316
glyoxal,,O=CC=O,LEQAOMBKQFMDFZ-UHFFFAOYSA-N,1.2363
acetone,,CC(C)=O,CSCPPACGZOOCGX-UHFFFAOYSA-N,1.236
allyl alcohol,,OCC=C,XXROGKLTLUQVRX-UHFFFAOYSA-N,1.236
trimethyleneoxide,,C1COC1,AHHWIHXENZJRFG-UHFFFAOYSA-N,1.236
ethanol,,CCO,LFQSCWFLJHTTHZ-UHFFFAOYSA-N,1.233668218
N-methylformamide,,CNC=O,ATHHXGZTWNVVOU-UHFFFAOYSA-N,1.228647734
potassium fluoride,,[F-].[K+],NROKBHXJSPEDAR-UHFFFAOYSA-M,1.228407286
isopropylamine,,CC(C)N,JJWLVOIRVHMVIS-UHFFFAOYSA-N,1.2283
propylamine,,CCCN,WGYKZJWCGVVSQN-UHFFFAOYSA-N,1.2283
"1,1-dimethylhydrazine",,CN(C)N,RHUYHJGZWVXEHW-UHFFFAOYSA-N,1.2211
"1,2-diaminoethane",,NCCN,PIICEJLVQHRZGT-UHFFFAOYSA-N,1.2211
"1,2-dimethylhydrazine",,CNNC,DIIIISSCIXVANO-UHFFFAOYSA-N,1.2211
2-aminoethan-1-ol,,NCCO,HZAXFHJVJLSVMW-UHFFFAOYSA-N,1.214072532
ethylene glycol,,OCCO,LYCAIKOWRPUZTN-UHFFFAOYSA-N,1.2071
2-fluoroethanol,,OCCF,GGDYAKVUZMZKRV-UHFFFAOYSA-N,1.1934
trimethylamine,,CN(C)C,GETQZCLCWQTVFV-UHFFFAOYSA-N,1.1777
"1,4:3,6-dianhydro-D-glucitol",,O[C@@H]1CO[C@@H]2[C@@H](O)CO[C@H]12,KLDXJTOLSGUMSJ-JGWLITMVSA-N,1.177450183
(1-hydroxy-1-phosphonoethyl)phosphonic acid,,OC=O,BDAGIHXWWSANSR-UHFFFAOYSA-N,1.175855294
[4-(aminomethyl)phenyl]methanamine,,NCc1ccc(CN)cc1,ISKQADXMHQSTHK-UHFFFAOYSA-N,1.175071806
lithium(1+) ion nitrate,,[Li+].[O-][N+]([O-])=O,IIPYXGDZVMZOAP-UHFFFAOYSA-N,1.170097396
cacodylic acid,,C[As](C)(O)=O,OGGXGZAMXPVRFZ-UHFFFAOYSA-N,1.1612
potassium 3-(acryloyloxy)propane-1-sulfonate,,[K+].[O-][S](=O)(=O)CCCOC(=O)C=C,VSFOXJWBPGONDR-UHFFFAOYSA-M,1.156268325
potassium phosphorous acid,,[K+].OP(O)O,UUCFTYONLUTOFU-UHFFFAOYSA-N,1.152409408
pyrrolidine,,N(CCC1)C1,RWRDLPDLKQPQOW-UHFFFAOYSA-N,1.15
ethylene cyanohydrin,,OCCC#N,WSGYTJNNHPZFKR-UHFFFAOYSA-N,1.1483
2-hydroxypropanenitrile,,CC(O)C#N,WOFDVDFSGLBFAC-UHFFFAOYSA-N,1.148258691
glycidylaldehyde,,O=CC1CO1,IWYRWIUNAVNFPE-UHFFFAOYSA-N,1.1423
isopropenyl methyl ether,,COC(C)=C,YOWQWFMSQCOSBA-UHFFFAOYSA-N,1.142
"N,N-dimethylformamide",,CN(C)C=O,ZMXDDKWLCZADIW-UHFFFAOYSA-N,1.13611233
N-methylacetamide,,CNC(C)=O,OHLUUHNLEMFGTQ-UHFFFAOYSA-N,1.13611233
isobutylamine,,CC(C)CN,KDSNLYIMUZNERS-UHFFFAOYSA-N,1.1359
n-butylamine,,CCCCN,HQABUPZFAYXKJW-UHFFFAOYSA-N,1.1359
2-methylpropan-2-amine,,CC(C)(C)N,YBRBMKDOPFTVDT-UHFFFAOYSA-N,1.135850982
N-ethylethanamine,,CCNCC,HPNMFZURTQLUMO-UHFFFAOYSA-N,1.135850982
lithium(1+) ion chloride,,[Li+].[Cl-],KWGKDLIKAYFUFQ-UHFFFAOYSA-M,1.134397972
propanoic acid,,CCC(O)=O,XBDQKXXYIPTUBI-UHFFFAOYSA-N,1.130304889
hydroxyacetone,,CC(=O)CO,XLSMFKSTNGKWQX-UHFFFAOYSA-N,1.1303
oxiranemethanol,,OCC1CO1,CTKINSOISVBQLD-UHFFFAOYSA-N,1.1303
"1,3-dioxalane",,C1COCO1,WNXJIVFYUVYPPR-UHFFFAOYSA-N,1.1303
n-nitrosodimethylamine,,CN(C)N=O,UMFJAHHVKNCGLG-UHFFFAOYSA-N,1.1303
1-methylurea,,CNC(N)=O,XGEGHDBEHXKFPX-UHFFFAOYSA-N,1.130281439
2-methylpropan-2-ol,,CC(C)(C)O,DKGAVHZHDRPRBM-UHFFFAOYSA-N,1.130047012
"propane-1,2-diamine",,CC(N)CN,AOHJOMMDDJHIJH-UHFFFAOYSA-N,1.130023576
ethyl 4-methylpiperazine-1-carboxylate,,CCOC(=O)N1CCN(C)CC1,USYYUUDWGLOMDJ-UHFFFAOYSA-N,1.13
(2S)-pyrrolidine-2-carboxylic acid,,OC(=O)C1CCCN1,ONIBWKKTOPOVIA-UHFFFAOYSA-N,1.129135649
aminoformonitrile,,NC#N,XZMCDFZZKTWFGF-UHFFFAOYSA-N,1.124514989
1-amino-2-propanol,,CC(O)CN,HXKKHQJGJAFBHI-UHFFFAOYSA-N,1.1243
2-(methylamino)ethan-1-ol,,CNCCO,OPKOKAMJFNKNAS-UHFFFAOYSA-N,1.124296456
formaldehyde,,C=O,WSFSSNUMVMOOMR-UHFFFAOYSA-N,1.1206
peroxyacetic acid,,CC(=O)OO,KFSLWBXXFJQRDL-UHFFFAOYSA-N,1.1189
hydroxyurea,,NC(=O)NO,VSNHCAURESNICA-UHFFFAOYSA-N,1.1189
"propane-1,3-diol",,OCCCO,YPFDHNVEDLHUCE-UHFFFAOYSA-N,1.118643879
"1,2-propanediol",,CC(O)CO,DNIAPMSPPWPWGF-UHFFFAOYSA-N,1.1186
"ethanol, 2-hydrazino-",,NNCCO,GBHCABUWWQUMAJ-UHFFFAOYSA-N,1.1186
2-methoxyethanol,,COCCO,XNWFRZJHXBZDAG-UHFFFAOYSA-N,1.1186
fluoroacetamide,,NC(=O)CF,FVTWJXMFYOXOKK-UHFFFAOYSA-N,1.1132
fluoroacetic acid,,OC(=O)CF,QEWYKACRFQMRMB-UHFFFAOYSA-N,1.1077
dimethyl sulfoxide,,C[S](C)=O,IAZDPXIOMUYVGZ-UHFFFAOYSA-N,1.1072
2-sulfanylethan-1-ol,,OCCS,DGVVWUTYPXICAM-UHFFFAOYSA-N,1.107148825
amino(imino)methanaminium; cyanosulfanide,,NC(N)=N.SC#N,ZJYYHGLJYGJLLN-UHFFFAOYSA-N,1.106488088
4-aminobutyric acid,,NCCCC(O)=O,BTCSSZJGUNDROE-UHFFFAOYSA-N,1.1006
bromoacetic acid,,OC(=O)CBr,KDPAWGWELVVRCH-UHFFFAOYSA-N,1.1002
pyridazine,,c1ccnnc1,PBMFSQRYOILNGV-UHFFFAOYSA-N,1.0964
pyrimidine,,c1cncnc1,CZPWVGJYEJSRLH-UHFFFAOYSA-N,1.0964
2-chloroethan-1-ol,,OCCCl,SZIFAVKTNFCBPC-UHFFFAOYSA-N,1.094128597
sodium cyanosulfanide,,[Na+].[S-]C#N,VGTPCRGMBIAPIM-UHFFFAOYSA-M,1.091113043
Sorbitol,,OCC(O)C(O)C(O)C(O)CO,FBPFZTCFMRRESA-UHFFFAOYSA-N,1.09
ammonium iodide,,[NH4+].[I-],UKFWSNCTAHXBQN-UHFFFAOYSA-N,1.08677602
1-methyl-1H-imidazole,,Cn1ccnc1,MCTWTZJPVLRJOU-UHFFFAOYSA-N,1.085625105
3-methyl-1H-pyrazole,,Cc1[nH]ncc1,XKVUYEYANWFIJX-UHFFFAOYSA-N,1.085625105
sodium iodide,,[Na+].[I-],FVAUCKIRQBBSSJ-UHFFFAOYSA-M,1.07779604
2-methylbut-3-yn-2-ol,,CC(C)(O)C#C,CEBKHWWANWSNTI-UHFFFAOYSA-N,1.075111062
sodium nitrite,,[Na+].[O-]N=O,LPXPTNMVRIOKMN-UHFFFAOYSA-M,1.074996233
2-cyanoacetic acid,,OC(=O)CC#N,MLIREBYILWEBDM-UHFFFAOYSA-N,1.07026441
acetone cyanohydrin,,CC(C)(O)C#N,MWFMGBPGAXYFAR-UHFFFAOYSA-N,1.07
pyrrolidone,,O=C1CCCN1,HNJBEVLQSNELDL-UHFFFAOYSA-N,1.07
piperidine,,C1CCNCC1,NQRYJNQNLNOLGT-UHFFFAOYSA-N,1.069815348
oxolan-2-one,,O=C1CCCO1,YEJRWHAVMIAJKC-UHFFFAOYSA-N,1.065047292
"1,2:3,4-diepoxybutane dl",,C1OC1C2CO2,ZFIVKAOQEXOYFY-UHFFFAOYSA-N,1.065
(z)-2-butenoic acid (isocrotonic acid),,C\C=C/C(O)=O,LDHQCZJRKDOVOX-IHWYPQMZSA-N,1.065
"1,2:3,4-diepoxybutane",,C1O[C@@H]1[C@H]2CO2,ZFIVKAOQEXOYFY-ZXZARUISSA-N,1.065
"1,2:3,4-diepoxybutane (2s,3s)",,C1O[C@@H]1[C@@H]2CO2,ZFIVKAOQEXOYFY-IMJSIDKUSA-N,1.065
"1,2:3,4-diepoxybutane (2r,3r)",,C1O[C@H]1[C@H]2CO2,ZFIVKAOQEXOYFY-QWWZWVQMSA-N,1.065
piperazine,,C1CNCCN1,GLUUGHFHXGJENI-UHFFFAOYSA-N,1.0648
"(3R,3aR,6S,6aR)-3,6-dimethoxy-hexahydrofuro[3,2-b]furan",,COC1COC2C(COC12)OC,MEJYDZQQVZJMPP-UHFFFAOYSA-N,1.059991817
morpholine,,C1COCCN1,YNAVUWVOSKDBBP-UHFFFAOYSA-N,1.0599
"N,N-dimethylacetamide",,CN(C)C(C)=O,FXHOOIRPVKKKFG-UHFFFAOYSA-N,1.059872163
n-pentylamine,,CCCCCN,DPBLXKKOBLCELK-UHFFFAOYSA-N,1.0597
"n,n-dimethylisopropylamine",,CC(C)N(C)C,VMOWKUTXPNPTEN-UHFFFAOYSA-N,1.0597
ethyl isopropylamine,,CCNC(C)C,RIVIDPPYRINTTH-UHFFFAOYSA-N,1.0597
pyruvic acid,,CC(=O)C(O)=O,LCTONWCANYUPML-UHFFFAOYSA-N,1.0552
aldol,,CC(O)CC=O,HSJKGGMUJITCBW-UHFFFAOYSA-N,1.055
"3-furanol, tetrahydro-",,OC1CCOC1,XDPCNPCKDGQBAN-UHFFFAOYSA-N,1.055
acetoin,,CC(O)C(C)=O,ROWKJAVDOGWPAT-UHFFFAOYSA-N,1.055
"1,4-dioxane",,C1COCCO1,RYHBNJHYFVUHQT-UHFFFAOYSA-N,1.054994515
ethyl(propyl)amine,,CCC[NH2+]CC,XCVNDBIXFPGMIW-UHFFFAOYSA-O,1.054659457
2-amino-1-butanol,,CCC(N)CO,JCBPETKZIGVZRE-UHFFFAOYSA-N,1.0499
2-dimethylaminoethanol,,CN(C)CCO,UEEJHVSXFDXPFK-UHFFFAOYSA-N,1.0499
2-amino-2-methyl-1-propanol,,CC(C)(N)CO,CBTVGIZVANVGBH-UHFFFAOYSA-N,1.0499
1-amino-2-butanol,,CCC(O)CN,KODLUXHSIZOKTG-UHFFFAOYSA-N,1.0499
lactic acid,,CC(O)C(O)=O,JVTAAEKCZFNVCJ-UHFFFAOYSA-N,1.0454
methoxyacetic acid,,COCC(O)=O,RMIODHQZRUFFFF-UHFFFAOYSA-N,1.0454
"fluoroacetic acid, sodium salt",,[Na+].[O-]C(=O)CF,JGFYQVQAXANWJU-UHFFFAOYSA-M,1.0452
"1,3-butanediol",,CC(O)CCO,PUPZLCDOIYMWBV-UHFFFAOYSA-N,1.0452
2-ethoxyethanol,,CCOCCO,ZNQVEEAIQZEUHB-UHFFFAOYSA-N,1.0452
"1,1-dimethoxyethane",,COC(C)OC,SPEUIVXLLWOEMJ-UHFFFAOYSA-N,1.0452
"butane-1,4-diol",,OCCCCO,WERYXYBDKMZEQL-UHFFFAOYSA-N,1.045169179
1-methoxypropan-2-ol,,COCC(C)O,ARXJGSRGQADJSQ-UHFFFAOYSA-N,1.045169179
"1,2-dimethoxyethane",,COCCOC,XTHFKEDIFFGKHM-UHFFFAOYSA-N,1.045169179
"butane-1,2-diol",,CCC(O)CO,BMRWNKZVCUKKSR-UHFFFAOYSA-N,1.045169179
"butane-2,3-diol",,C[C@@H](O)[C@H](C)O,OWBTYPJTUOEWEK-ZXZARUISSA-N,1.045169179
potassium cyanide,,[K+].[C-]#N,NNFCIKHAZHQZJG-UHFFFAOYSA-N,1.0436
diiron(3+) ion trisulfate,,[Fe+3].[Fe+3].[O-][S]([O-])(=O)=O.[O-][S]([O-])(=O)=O.[O-][S]([O-])(=O)=O,RUTXIHLAWFEWGM-UHFFFAOYSA-H,1.041524079
2-nitroethanol,,OCC[N+]([O-])=O,KIPMDPDAFINLIV-UHFFFAOYSA-N,1.0406
"3-aminopropane-1,2-diol",,NCC(O)CO,KQIGMPWTAHJUMN-UHFFFAOYSA-N,1.040433953
tetramethylazanium hydroxide,,[OH-].C[N+](C)(C)C,WGTYBPLFGIVFAS-UHFFFAOYSA-M,1.040224269
"propane-1,2,3-triol",,OCC(O)CO,PEDCQBHIVMGVHV-UHFFFAOYSA-N,1.035768663
dimethylsilanediol,,C[Si](C)(O)O,XCLIHDJZGPCUBT-UHFFFAOYSA-N,1.0354
2-methylbut-3-yn-2-amine,,CC(C)(N)C#C,VUGCBIWQHSRQBZ-UHFFFAOYSA-N,1.031655988
2-methylpyridine,,Cc1ccccn1,BSKHPKMHTQYZBB-UHFFFAOYSA-N,1.03091506
4-methylpyridine,,Cc1ccncc1,FKNQCJSGGFJEIZ-UHFFFAOYSA-N,1.0309
3-methylpyridine,,Cc1cccnc1,ITQTTZVARXURQS-UHFFFAOYSA-N,1.0309
2-methylpyrazine,,Cc1cnccn1,CAWHJQAVHZEVTJ-UHFFFAOYSA-N,1.0263
3-aminopyridine,,Nc1cccnc1,CUYKNJBYIJFRCU-UHFFFAOYSA-N,1.0263
pentanedinitrile,,N#CCCCC#N,ZTOMUSMDRMJOTH-UHFFFAOYSA-N,1.0263
ammonium fluoride hydrofluoride,,[H+].[NH4+].[F-].[F-],KVBCYCWRDBDGBG-UHFFFAOYSA-N,1.023394133
2-hydroxypyridine,,O=C1NC=CC=C1,UBQKCCHYAOITMY-UHFFFAOYSA-N,1.0218
4-hydroxypyridine,,O=C1C=CNC=C1,GCNTZFIIOFTKIY-UHFFFAOYSA-N,1.0218
pyridine oxide,,[O-][n+]1ccccc1,ILVXOBCQQYKLDS-UHFFFAOYSA-N,1.0218
"acetic acid, difluoro-",,OC(=O)C(F)F,PBWZKZYHONABLN-UHFFFAOYSA-N,1.0176
methanesulfonic acid,,C[S](O)(=O)=O,AFVFQIVMOAPDHO-UHFFFAOYSA-N,1.017244979
"1,3-dihydroxypropan-2-one",,OCC(=O)CO,RXKJFZQQPQGTFL-UHFFFAOYSA-N,1.013864214
1-(2-furyl)methanamine,,NCc1occc1,DDRPCXLAQZKBJP-UHFFFAOYSA-N,1.012704742
sodium formate,,[Na+].[O-]C=O,HLBBKKJFGFRGMU-UHFFFAOYSA-M,1.012544423
potassium cyanosulfanide,,[K+].[S-]C#N,ZNNZYHKDIALBAK-UHFFFAOYSA-M,1.012409699
sulfuric acid,,O[S](O)(=O)=O,QAOWNCQODCNURD-UHFFFAOYSA-N,1.0084
N-(1-cyanoethyl)formamide,,CC(NC=O)C#N,ONONIESHMTZAKB-UHFFFAOYSA-N,1.008308858
2-hydroxymethylfuran,,OCc1occc1,XPFVYQJUAUNWIW-UHFFFAOYSA-N,1.0083
"1,2,4-triazole",,[nH]1cncn1,NSPMIYGKQJPBQR-UHFFFAOYSA-N,1.005827448
1-methylpyrrolidin-2-one,,CN1CCCC1=O,SECXISVLQFMRJM-UHFFFAOYSA-N,1.003781751
cyclohexanamine,,NC1CCCCC1,PAFZNILMFXTMIY-UHFFFAOYSA-N,1.003589033
"benzene-1,3-diol",,Oc1cccc(O)c1,GHMLBKRAJCXXBS-UHFFFAOYSA-N,1.003488328
acetic acid,,CC(O)=O,QTBSBXVTEAMEQO-UHFFFAOYSA-N,1.001717808
glutaric  acid;  pentanedioic  acid,,OC(=O)CCCC(O)=O,JFCQEDHGNNZCLN-UHFFFAOYSA-N,1
"2,2,2-trifluoroethan-1-ol",,OCC(F)(F)F,RHQDFWAXVIIEBN-UHFFFAOYSA-N,0.999830658
n-nitrosopyrrolidine,,O=NN1CCCC1,WNYADZVDBIBLJJ-UHFFFAOYSA-N,0.9995
oxan-2-one,,O=C1CCCCO1,OZJPLYNZGCXSJM-UHFFFAOYSA-N,0.999492173
3-oxobutanamide,,CC(=O)CC(N)=O,GCPWJFKTWGFEHH-UHFFFAOYSA-N,0.995227367
n-methylmorpholine,,CN1CCOCC1,SJRJJKPEHAURKC-UHFFFAOYSA-N,0.995
"n,n-diethylformamide",,CCN(CC)C=O,SUAKHGWARZSWIH-UHFFFAOYSA-N,0.995
acetoacetic acid,,CC(=O)CC(O)=O,WDJHALXBUFZDSR-UHFFFAOYSA-N,0.991
(3-aminopropyl)dimethylamine,,CN(C)CCCN,IUNMPGNGSSIWFP-UHFFFAOYSA-N,0.990629851
sodium hydrogensulphide,,[Na+].[SH-],HYHCSLBZRBJJCH-UHFFFAOYSA-M,0.990088732
"acetamide, n-(2-hydroxyethyl)-",,CC(=O)NCCO,PVCJKHHOXFKFRP-UHFFFAOYSA-N,0.9867
"butanoic acid, 3-amino-",,CC(N)CC(O)=O,OQEBBZSWEGYTPG-UHFFFAOYSA-N,0.9867
3-(dimethylamino)propan-1-ol,,CN(C)CCCO,PYSGFFTXMUWEOT-UHFFFAOYSA-N,0.986467618
diethylenetriamine,,NCCNCCN,RPNUMPOLZDHAAY-UHFFFAOYSA-N,0.9864
"acetic acid, dibromo-",,OC(=O)C(Br)Br,SIEILFNCEFEENQ-UHFFFAOYSA-N,0.9861
"2-butanamine, 3,3-dimethyl-",,C[C@H]([NH3+])C(C)(C)C,DXSUORGKJZADET-YFKPBYRVSA-O,0.9861
"2-hydroxypropanoic acid, methyl ester",,COC(=O)C(C)O,LPEKGGXMPWTOCB-UHFFFAOYSA-N,0.9825
"pentane-1,2-diol",,CCCC(O)CO,WCVRQHFDJLLWFE-UHFFFAOYSA-N,0.982344896
"pentane-1,5-diol",,OCCCCCO,ALQSHHUCVQOPAS-UHFFFAOYSA-N,0.982344896
2-[(2-aminoethyl)amino]ethan-1-ol,,NCCNCCO,LHIJANUOQQMGNT-UHFFFAOYSA-N,0.982328216
"2,2'-oxydiethanamine",,NCCOCCN,GXVUZYLYWKWJIM-UHFFFAOYSA-N,0.982328216
"n,n-dimethylthiourea",,CNC(=S)NC,VLCDUOXHFNUCKK-UHFFFAOYSA-N,0.9823
2-amino-2-methylpropanediol,,CC(N)(CO)CO,UXFQFBNBSPQBJW-UHFFFAOYSA-N,0.9782
2-aminopyridine,,Nc1ccccn1,ICSNLGPSRYBMBD-UHFFFAOYSA-N,0.9757
"2-aminopropane-1,3-diol",,NC(CO)CO,KJJPLEZQSCZCKE-UHFFFAOYSA-N,0.974427117
2-(2-hydroxyethoxy)ethan-1-ol,,OCCOCCO,MTHSVFCYNBDYFN-UHFFFAOYSA-N,0.974198666
1H-imidazole,,[nH]1ccnc1,RAXXELZNTBOGNW-UHFFFAOYSA-N,0.968390542
2-pyridinemethaneamine,,NCc1ccccn1,WOXFMYVTSLAQMO-UHFFFAOYSA-N,0.966
4-pyridinemethaneamine,,NCc1ccncc1,TXQWFIVRZNOPCK-UHFFFAOYSA-N,0.966
potassium cyanate,,[K+].[O-]C#N,GKKCIDNWFBPDBW-UHFFFAOYSA-M,0.965960091
2-chloropropionic acid,,CC(Cl)C(O)=O,GAWAYYRQGQZKCR-UHFFFAOYSA-N,0.9645
2-[3-(4-propylheptyl)morpholin-4-yl]ethan-1-ol hydrochloride,,CCCC(CCC)CCCC1COCCN1CCO,QSFOWAYMMZCQNF-UHFFFAOYSA-N,0.964258162
o-methyl carbamate,,COC(N)=O,GTCAXTIRRLKXRU-UHFFFAOYSA-N,0.964
sodium bromide,,[Na+].[Br-],JHJLBTNAGRQEKS-UHFFFAOYSA-M,0.963501086
dimethyl[2-[(2-methyl-1-oxoallyl)oxy]ethyl](3-sulphopropyl)ammonium hydroxide,,CC(=C)C(=O)OCC[N+](C)(C)CCC[S]([O-])(=O)=O,BCAIDFOKQCVACE-UHFFFAOYSA-N,0.96273997
4-pyridinemethanol,,OCc1ccncc1,PTMBWNZJOQBTBK-UHFFFAOYSA-N,0.9621
"2(1h)-pyridinone, 1-methyl-",,CN1C=CC=CC1=O,DVVGIUUJYPYENY-UHFFFAOYSA-N,0.9621
4-methyl-n-oxidepyridine,,Cc1cc[n+]([O-])cc1,IWYYIZOHWPCALJ-UHFFFAOYSA-N,0.9621
3-methyl-n-oxidepyridine,,CC1=CC=C[NH++]([O-])[CH-]1,DMGGLIWGZFZLIY-UHFFFAOYSA-N,0.9621
pyridin-3-ylmethanol,,OCc1cccnc1,MVQVNTPHUGQQHK-UHFFFAOYSA-N,0.962063804
ammonium 2-sulfanylacetate,,[NH4+].[O-]C(=O)CS,ZZTCCAPMZLDHFM-UHFFFAOYSA-N,0.96197626
"N,N,N-trimethylmethanaminium chloride",,[Cl-].C[N+](C)(C)C,OKIZCWYLBDKLSU-UHFFFAOYSA-M,0.960189446
urea,,NC(N)=O,XSQUKJJJFZCRTK-UHFFFAOYSA-N,0.957840099
2-[(2-hydroxyethyl)amino]ethan-1-ol,,OCCNCCO,ZBCBWPMODOFKDW-UHFFFAOYSA-N,0.957792794
"3-chloro-1,2-propanediol",,OCC(O)CCl,SSZWWUDQMAHNAQ-UHFFFAOYSA-N,0.9565
Antipyrine; Phenazone,CAS60-80-0,Cc1cc(=O)n(-c2ccccc2)n1C,VEQOALNAAJBPNY-UHFFFAOYSA-N,0.96
acrylamide,,NC(=O)C=C,HRPVXLWXLXDGHG-UHFFFAOYSA-N,0.9544
dipotassium carbonate,,[K+].OC([O-])=O,TYJJADVDDVDEDZ-UHFFFAOYSA-M,0.953747696
sodium 2-sulfanylethan-1-olate,,[Na+].[O-]CCS,RYBWXHDKJVRTES-UHFFFAOYSA-N,0.953730344
sodium lactate,,[Na+].CC(O)C([O-])=O,NGSFWBMYFKHRBD-UHFFFAOYSA-M,0.9505
calcium phosphonate,,[Ca++].[O-][PH]([O-])=O,OMAAXMJMHFXYFY-UHFFFAOYSA-L,0.948776933
lanthanum trinitrate,,[La],FZLIPJUXYLNCLC-UHFFFAOYSA-N,0.947184106
1-ethylpyrrolidin-2-one,,CCN1CCCC1=O,ZFPGARUNNKGOBB-UHFFFAOYSA-N,0.946307061
2-(carboxyoxy)ethyl hydrogen carbonate,,O=C1OCCO1,KMTRUDSVKNLOMY-UHFFFAOYSA-N,0.946191052
"propanamide, 2-hydroxy-",,CC(O)C(N)=O,SXQFCVDSOLSHOQ-UHFFFAOYSA-N,0.9435
trifluoroacetic acid,,OC(=O)C(F)(F)F,DTQVDTLACAAQTR-UHFFFAOYSA-N,0.943011346
oxepan-2-one,,O=C1CCCCCO1,PAPBSGBWRJIAAV-UHFFFAOYSA-N,0.942546912
"1,4-dimethylpiperazine",,CN1CCN(C)CC1,RXYPXQSKLGGKOL-UHFFFAOYSA-N,0.942364321
"2,6-dimethylmorpholine",,CC1CNCC(C)O1,HNVIQLPOGUDBSU-UHFFFAOYSA-N,0.938638008
"1,3-dimethylurea",,CNC(=O)NC,MGJKQDOBUOMPEZ-UHFFFAOYSA-N,0.938636234
"1,1,3,3-tetramethylguanidine",,CN(C)C(=N)N(C)C,KYVBNYUBXIEUFW-UHFFFAOYSA-N,0.938622926
4-ethylmorpholine,,CCN1CCOCC1,HVCNXQOWACZAFN-UHFFFAOYSA-N,0.9386
2-azabicyclo[2.2.1]hept-5-en-3-one,,O=C1NC2CC1C=C2,DDUFYKNOXPZZIW-UHFFFAOYSA-N,0.936160808
potassium iodide,,[K+].[I-],NLKNQRATVPKPDG-UHFFFAOYSA-M,0.935222717
2-hydroxyethyl prop-2-enoate,,OCCOC(=O)C=C,OMIGHNLMNHATMP-UHFFFAOYSA-N,0.935107933
n-nitrosomorpholine,,O=NN1CCOCC1,ZKXDGKXYMTYWTB-UHFFFAOYSA-N,0.9351
tetrahydropyran-2-methanol,,OCC1CCCCO1,ROTONRWJLXYJBD-UHFFFAOYSA-N,0.9349
4-hydroxy-4-methyl-2-pentanone,,CC(=O)CC(C)(C)O,SWXVUIWOUIDPGS-UHFFFAOYSA-N,0.9349
tetramethylurea,,CN(C)C(=O)N(C)C,AVQQQNCBBIEMEU-UHFFFAOYSA-N,0.9349
5-aminopentanoic acid,,NCCCCC(O)=O,JJMDCOVWQOJGCB-UHFFFAOYSA-N,0.9313
2-(butylamino)ethan-1-ol,,CCCCNCCO,LJDSTRZHPWMDPG-UHFFFAOYSA-N,0.931102034
2-(diethylamino)-ethanol,,CCN(CC)CCO,BFSVOASYOCHEOV-UHFFFAOYSA-N,0.9311
dicaesium(1+) ion carbonate,,[Cs+].[Cs+].[O-]C([O-])=O,FJDQFPXHSGXQBY-UHFFFAOYSA-L,0.930068755
3-hydroxy-2-(hydroxymethyl)-2-methylpropanal,,CC(CO)(CO)C=O,CBIFNLUPCWCNQT-UHFFFAOYSA-N,0.928933376
potassium formate,,[K+].[O-]C=O,WFIZEGIEIOHZCP-UHFFFAOYSA-M,0.9288
n-nitrososarcosine,,CN(CC(O)=O)N=O,HJMPSKKJHVWPBK-UHFFFAOYSA-N,0.9278
"4-(hydroxymethyl)-1,3-dioxolan-2-one",,OCC1COC(=O)O1,JFMGYULNQJPJCY-UHFFFAOYSA-N,0.927794233
chloroacetic acid,,OC(=O)CCl,FOCAUTSVDIKZOP-UHFFFAOYSA-N,0.9277
ethyl lactate,,CCOC(=O)C(C)O,LZCLXQDLBQLTDK-UHFFFAOYSA-N,0.9276
2-methoxyethyl acetate,,COCCOC(C)=O,XLLIQLLCWZCATF-UHFFFAOYSA-N,0.9276
"2-methyl-2,4-pentanediol",,CC(O)CC(C)(C)O,SVTBMSDMJJWYQN-UHFFFAOYSA-N,0.9275
1-[(2-aminoethyl)amino]-2-propanol,,CC(O)CNCCN,CWKVFRNCODQPDB-UHFFFAOYSA-N,0.9275
1-propoxy-2-propanol,,CCCOCC(C)O,FENFUOGYJVOCRY-UHFFFAOYSA-N,0.9275
"3-methylpentane-1,5-diol",,CC(CCO)CCO,SXFJDZNJHVPHPH-UHFFFAOYSA-N,0.927470714
l-homoserine,,N[C@@H](CCO)C(O)=O,UKAUYVFTDYCKQA-VKHMYHEASA-N,0.924
2-[(2-hydroxyethyl)(methyl)amino]ethan-1-ol,,CN(CCO)CCO,CRVGTESFCCXCTH-UHFFFAOYSA-N,0.923854927