Name,ID,SMILES,inchi,LogS
meloxicam,,CN1C(=C(O)C2=CC=CC=C2[S]1(=O)=O)C(=O)NC3=NC=C(C)S3,ZRVUJXDFFKFLMG-UHFFFAOYSA-N,-1.92
thiobenzamide,,NC(=S)C1=CC=CC=C1,QIOZLISABUUKJY-UHFFFAOYSA-N,-1.92
n-acetylacyclovir,,CC(=O)NC1=NC2=C(N=C[N]2COCCO)C(=O)N1,DJMINGJGFGSDDB-UHFFFAOYSA-N,-1.92
methyl  2-allyl-2-ethylmalonurate,,CCC(CC=C)(C(=O)NC(N)=O)C(=O)OC,GOMPBNNIROZLMY-UHFFFAOYSA-N,-1.92
n-Hexyl_Carbamate,,NC(=O)OCCCCCC,ROASJEHPZNKHOF-UHFFFAOYSA-N,-1.92
"3,6-diethyl-3,6-dimethylpiperazine-2,5-dione",,CCC1(C)NC(=O)C(C)(CC)NC1=O,MRMALBRVIWCMRT-UHFFFAOYSA-N,-1.92
4-[3-(morpholin-4-ylmethyl)benzoyl]thiophene-2-sulfonamide,,NS(=O)(=O)C1=CC(C(=O)C2=CC(CN3CCOCC3)=CC=C2)=CS1,OZVILYXCMAQHFM-UHFFFAOYSA-N,-1.92
Dorzolamide Hydrochloride,CAS130693-82-2,CC1CC(C2=C(S1(=O)=O)SC(=C2)S(=O)(=O)N)N,HVURBRAECUMAHY-UHFFFAOYSA-N,-1.92
"2-butenoic acid, 4-[(aminocarbonyl)amino]-4-oxo-",,NC(=O)NC(=O)C=CC(O)=O,GWGLGTKSTGSWGQ-UHFFFAOYSA-N,-1.9202
"ethanamine, n,2-dichloro-n-(2-chloroethyl)-",,ClCCN(Cl)CCCl,HEMZNEGKTOHOHW-UHFFFAOYSA-N,-1.9203
"3-octyloxy-propane-1,2-diol",,CCCCCCCCOCC(O)CO,GUPXYSSGJWIURR-UHFFFAOYSA-N,-1.9208
beta-eucaine,,CC1CC(CC(C)(C)N1)OC(=O)c2ccccc2,ZYHGIAPHLSTGMX-UHFFFAOYSA-N,-1.922
"N,N-dimethylaniline",,CN(C)c1ccccc1,JLTDJTHDQAWBAV-UHFFFAOYSA-N,-1.922073697
"6-formyl-2,3-dimethoxybenzoic acid",,COc1ccc(C=O)c(C(O)=O)c1OC,HVXXOIGTXJOVON-UHFFFAOYSA-N,-1.9247
iridomyrmecin,,CC1CCC2C(C)C(=O)OCC12,LYEFRAMOOLOUKA-UHFFFAOYSA-N,-1.9249
"5-methyl-2-phenyl-2,3-dihydro-1H-pyrazol-3-one",,CC1=NN(C(=O)C1)c2ccccc2,QELUYTUMUWHWMC-UHFFFAOYSA-N,-1.925085284
"1,2,3-trichloropropane",,ClCC(Cl)CCl,CFXQEHVMCRXUSD-UHFFFAOYSA-N,-1.9255
1-naphthylamine,,Nc1cccc2ccccc12,RUFPHBVGCFYCNW-UHFFFAOYSA-N,-1.9255
chlorotrinitromethane,,[O-][N+](=O)C(Cl)([N+]([O-])=O)[N+]([O-])=O,GNZCDDDPGSFZFG-UHFFFAOYSA-N,-1.9259
tetrachlorophthalic acid,,OC(=O)c1c(Cl)c(Cl)c(Cl)c(Cl)c1C(O)=O,WZHHYIOUKQNLQM-UHFFFAOYSA-N,-1.9264
sulfonal,,CC[S](=O)(=O)C(C)(C)[S](=O)(=O)CC,CESKLHVYGRFMFP-UHFFFAOYSA-N,-1.927
ethylisopentylcarbinol,,CCC(O)CCC(C)C,MNBIBGDICHMQFN-UHFFFAOYSA-N,-1.9272
"l-tyrosine, 3,5-dibromo-",,N[C@@H](Cc1cc(Br)c(O)c(Br)c1)C(O)=O,COESHZUDRKCEPA-ZETCQYMHSA-N,-1.9281
"benzenemethanol, 4-bromo-",,OCc1ccc(Br)cc1,VEDDBHYQWFOITD-UHFFFAOYSA-N,-1.9295
3-anisic  acid;  3-methoxybenzoic  acid,,COC1=CC(=CC=C1)C(O)=O,XHQZJYCNDZAGLW-UHFFFAOYSA-N,-1.93
7-(butoxycarbonyl)theophylline,,CCCCOC(=O)[N]1C=NC2=C1C(=O)N(C)C(=O)N2C,NVWQRLZUBQMAOX-UHFFFAOYSA-N,-1.93
Orotic_Acid,,C1(=O)NC(=O)NC(C(=O)O)=C1,PXQPEWDEAKTCGB-UHFFFAOYSA-N,-1.93
4-hydroxybutyl N-[6-(4-hydroxybutoxycarbonylamino)hexyl]carbamate,,O=C(NCCCCCCNC(=O)OCCCCO)OCCCCO,XXVXIPPJGSLKSX-UHFFFAOYSA-N,-1.93
"(2~{Z})-2-(1,3-thiazole-2-carbonylhydrazinylidene)propanoic acid",,CC(=NNC(=O)C1=NC=CS1)C(=O)O,XOYLOFFMDZQQKI-UHFFFAOYSA-N,-1.93
"dithiane-3,6-dicarboxylic acid",,O=C(O)C1CCC(C(=O)O)SS1,NQRRVGBUZRSXRF-UHFFFAOYSA-N,-1.93
trans-2-butene,,C\C=C/C,IAQRGUVFOMOMEM-ARJAWSKDSA-N,-1.9302
N-(2-methoxy-5-methylphenyl)acetamide,,COc1ccc(C)cc1NC(C)=O,POLMNXCVMYMLSF-UHFFFAOYSA-N,-1.931164755
meso-hydrobenzoin,,OC(C(O)c1ccccc1)c2ccccc2,IHPDTPWNFBQHEB-UHFFFAOYSA-N,-1.933
"trans-cyclohexane-1,2-dicarboxylic acid",,OC(=O)C1CCCCC1C(O)=O,QSAWQNUELGIYBC-UHFFFAOYSA-N,-1.935
"thiocyanic acid, 1,2,3-propanetriyl ester",,N#CSCC(CSC#N)SC#N,DNFIEAXZRIFMMN-UHFFFAOYSA-N,-1.9351
"2,3,6-trimethylphenol",,Cc1ccc(C)c(O)c1C,QQOMQLYQAXGHSU-UHFFFAOYSA-N,-1.935500888
"acetic acid, (2,4-dinitrophenoxy)-",,OC(=O)COc1ccc(cc1[N+]([O-])=O)[N+]([O-])=O,OWEDBRWCJFWVFZ-UHFFFAOYSA-N,-1.9369
"3,4-dihydroxy-5-nitrobenzaldehyde",,Oc1cc(C=O)cc(c1O)[N+]([O-])=O,BBFJODMCHICIAA-UHFFFAOYSA-N,-1.937833911
"5-pyrimidinecarboxylic acid, 1,2,3,4-tetrahydro-",,OC(=O)C1=CNC(=O)NC1=O,ZXYAAVBXHKCJJB-UHFFFAOYSA-N,-1.9381
n-butyl propionate,,CCCCOC(=O)CC,BTMVHUNTONAYDX-UHFFFAOYSA-N,-1.9385
(2E)-but-2-ene,,C\C=C\C,IAQRGUVFOMOMEM-ONEGZZNKSA-N,-1.939465074
periplocin,,COC1[C@H](O)C(CO[C@@H]2C(O)C[C@@H](O)OC2C)O[C@@H](O[C@H]3CC[C@]4(C)C5CC[C@]6(C)[C@H](CC[C@]6(O)C5CC[C@]4(O)C3)C7=CC(=O)OC7)C1O,JVFYCULORCKYMD-WSSBEIOBSA-N,-1.94
"minoxidil;  2,4-diamino-6-piperidinopyrimidine 3-oxide",,NC1=[N+]([O-])C(=NC(=C1)N2CCCCC2)N,ZFMITUMMTDLWHR-UHFFFAOYSA-N,-1.94
N-Hydroxy-4-nitrobenzamide,,C1=CC(=CC=C1C(=O)NO)[N+](=O)[O-],NORABPMBUQMZLT-UHFFFAOYSA-N,-1.94
6-[Hydroxy(4-quinolinyl)methyl]quinuclidine-3-carboxylic acid,,O=C(O)C1CN2CCC1CC2C(O)C1=CC=NC2=C1C=CC=C2,XDPYXPRALQKAHS-UHFFFAOYSA-N,-1.94
1-Butene,,CCC=C,VXNZUUAINFGPBY-UHFFFAOYSA-N,-1.94
1-bromo-3-chloropropane,,ClCCCBr,MFESCIUQSIBMSM-UHFFFAOYSA-N,-1.940151412
"1,2-dibutyoxyethane",,CCCCOCCOCCCC,GDXHBFHOEYVPED-UHFFFAOYSA-N,-1.9402
"ethane, 1,1'-oxybis[2-[(2-chloroethyl)sulfonyl]-",,ClCC[S](=O)(=O)CCOCC[S](=O)(=O)CCCl,IMQZHNMZKUCNAB-UHFFFAOYSA-N,-1.9408
4-methyl-1-(propan-2-yl)cyclohex-3-en-1-ol,,CC(C)C1(O)CCC(=CC1)C,WRYLYDPHFGVWKC-UHFFFAOYSA-N,-1.94099707
"benzene-1,3,5-tricarboxylic acid",,OC(=O)c1cc(cc(c1)C(O)=O)C(O)=O,QMKYBPDZANOJGF-UHFFFAOYSA-N,-1.942299553
"quinoline, 2,7-dimethyl-",,Cc1ccc2ccc(C)nc2c1,QXKPLNCZSFACPU-UHFFFAOYSA-N,-1.9424
"2,4-dimethylquinoline",,Cc1cc(C)c2ccccc2n1,ZTNANFDSJRRZRJ-UHFFFAOYSA-N,-1.9424
"2,4(1h,3h)-pyrimidinedione, 5-ethyl-",,CCC1=CNC(=O)NC1=O,RHIULBJJKFDJPR-UHFFFAOYSA-N,-1.9424
methyl 2-[(1E)-cyclopentylidene]acetate,,COC(=O)C=C1CCCC1,ZDBCSZOFHPULAS-UHFFFAOYSA-N,-1.942572269
"sodium 1-amino-4-({4-[(N-methyl4-methylbenzenesulfonamido)methyl]phenyl}amino)-9,10-dioxo-9,10-dihydroanthracene-2-sulfonate",,[Na+].CN(Cc1ccc(Nc2cc(c(N)c3C(=O)c4ccccc4C(=O)c23)[S]([O-])(=O)=O)cc1)[S](=O)(=O)c5ccc(C)cc5,JOXJJQNGIBRWJT-UHFFFAOYSA-M,-1.942821991
"(2S,5R)-6-amino-3,3-dimethyl-7-oxo-4-thia-1-azabicyclo[3.2.0]heptane-2-carboxylic acid",,CC1(C)S[C@@H]2[C@H](N)C(=O)N2[C@H]1C(O)=O,NGHVIOIJCVXTGV-ALEPSDHESA-N,-1.944045108
"azuleno[6,5-b]furan-2,6-(3h,4h)-dione, 3a,7,7a,8",,C[C@H]1C[C@H]2OC(=O)[C@@H](C)[C@H]2[C@H](O)C3=C(C)C(=O)C[C@H]13,BFWXQSLJSDLIAA-GSGOXJSYSA-N,-1.945
ethidimuron,,CC[S](=O)(=O)c1sc(nn1)N(C)C(=O)NC,KCOCSOWTADCKOL-UHFFFAOYSA-N,-1.945
pirimicarb,,CN(C)C(=O)Oc1nc(nc(C)c1C)N(C)C,YFGYUFNIOHWBOB-UHFFFAOYSA-N,-1.9457
"acetamide, n-acetyl-n-(4-ethoxyphenyl)-",,CCOc1ccc(cc1)N(C(C)=O)C(C)=O,QGKJDERCEAREGO-UHFFFAOYSA-N,-1.947
Maprotiline,CAS10262-69-8,CNCCC[C@]12CC[C@H](c3ccccc31)c1ccccc12,QSLMDECMDJKHMQ-GSXCWMCISA-N,-1.95
"2,3-dihydro-1,2-benzothiazol-3-one",,O=C1NSc2ccccc12,DMSMPAJRVJJAGA-UHFFFAOYSA-N,-1.947289546
disodium 5-({4-[(2-bromoacryloyl)amino]-2-sulfonatophenyl}diazenyl)-4-hydroxy-6-(methylamino)naphthalene-2-sulfonate,,[Na+].[Na+].CN=C1C=CC2=CC(=CC(=O)C2=C1NNc3ccc(NC(=O)C(Br)=C)cc3[S]([O-])(=O)=O)[S]([O-])(=O)=O,IJUMYNZGVPFZDO-UHFFFAOYSA-L,-1.947653209
nandrolone,,C[C@]12CC[C@H]3[C@@H](CCC4=CC(=O)CC[C@H]34)[C@@H]1CC[C@@H]2O,NPAGDVCDWIYMMC-IZPLOLCNSA-N,-1.9484
"naphthalene-1,3-diol",,Oc1cc(O)c2ccccc2c1,XOOMNEFVDUTJPP-UHFFFAOYSA-N,-1.9493
[(~{Z})-[(1~{Z})-1-(carbamoylhydrazinylidene)propan-2-ylidene]amino]urea,,CC(C=NNC(N)=O)=NNC(N)=O,IMWQMZMZPWIQBE-UHFFFAOYSA-N,-1.95
1-[bis(propylsulfonyl)methylsulfonyl]propane,,CCCS(=O)(=O)C(S(=O)(=O)CCC)S(=O)(=O)CCC,ZROFIZIVWGDNCA-UHFFFAOYSA-N,-1.95
"9-hydroxy-1,5,8-trimethyl-1,3a,4,5,5a,6,9,9a-octahydroazuleno[5,6-d]furan-2,7-dione",,CC1=C2C(O)C3C(CC(C)C2CC1=O)OC(=O)C3C,BFWXQSLJSDLIAA-UHFFFAOYSA-N,-1.95
"1-propanamine, 3-(trimethylsilyl)-",,C[Si](C)(C)CCCN,PFRLCKFENIXNMM-UHFFFAOYSA-N,-1.9509
tubercidin,,Nc1ncnc2n(ccc12)C3OC(CO)C(O)C3O,HDZZVAMISRMYHH-UHFFFAOYSA-N,-1.9515
"benzoic acid, 5-bromo-2-chloro-",,[O-]C(=O)c1cc(Br)ccc1Cl,FGERXQWKKIVFQG-UHFFFAOYSA-M,-1.952
isobutyl nitrate,,CC(C)CO[N+]([O-])=O,LNNXFUZKZLXPOF-UHFFFAOYSA-N,-1.9521
Acyclovir,CAS59277-89-3,Nc1nc2c(ncn2COCCO)c(=O)[nH]1,MKUXAQIIEYXACX-UHFFFAOYSA-N,-1.95
"1,3-benzenediol, 4-pentyl-",,CCCCCc1ccc(O)cc1O,PJHYOCWMKYASAB-UHFFFAOYSA-N,-1.9548
1-nitropentane,,CCCCC[N+]([O-])=O,BVALZCVRLDMXOQ-UHFFFAOYSA-N,-1.9548
"2,4,5-trimethylaniline",,Cc1cc(C)c(N)cc1C,BMIPMKQAAJKBKP-UHFFFAOYSA-N,-1.9549
Mecarphon,,COC(=O)N(C)C(=O)CS[P](C)(=S)OC,PUTUPQVEMBRCAG-UHFFFAOYSA-N,-1.9563
Carbidopa,CAS38821-49-7,CC(Cc1ccc(O)c(O)c1)(NN)C(=O)O.O,QTAOMKOIBXZKND-UHFFFAOYSA-N,-1.96
1-chloro-2-methylpropene,,CC(C)=CCl,KWISWUFGPUHDRY-UHFFFAOYSA-N,-1.9569
1-chloro-2-butene,,C/C=C/CCl,YTKRILODNOEEPX-NSCUHMNNSA-N,-1.9569
2-nitroanisole,,COc1ccccc1[N+]([O-])=O,CFBYEGUGFPZCNF-UHFFFAOYSA-N,-1.9572
dipentaerythritol,,OCC(CO)(CO)COCC(CO)(CO)CO,TXBCBTDQIULDIA-UHFFFAOYSA-N,-1.9582
"1-chloro-1,2,2,2-tetrafluoroethane",,FC(Cl)C(F)(F)F,BOUGCJDAQLKBQH-UHFFFAOYSA-N,-1.959
"bis(2-phenyl-4,5-dihydro-1H-imidazole); benzene-1,2,4,5-tetracarboxylic acid",,OC(=O)c1cc(C(O)=O)c(cc1C(O)=O)C(O)=O.C2CN=C(N2)c3ccccc3.C4CN=C(N4)c5ccccc5,XSMMIZPIWZYHNL-UHFFFAOYSA-N,-1.959467524
2-methylbenaimidazole,,Cc1[nH]c2ccccc2n1,LDZYRENCLPUXAX-UHFFFAOYSA-N,-1.9598
"1,3-benzodioxole-5-acetaldehyde",,O=CCc1ccc2OCOc2c1,RRMZTAWQQFJQHL-UHFFFAOYSA-N,-1.96
2-nitroaniline,,NC1=C(C=CC=C1)[N+]([O-])=O,DPJCXCZTLWNFOH-UHFFFAOYSA-N,-1.96
"methyl  2,2-diethylmalonurate",,CCC(CC)(C(=O)NC(N)=O)C(=O)OC,XHBHEPKDMPOVAT-UHFFFAOYSA-N,-1.96
trichloroethylene,,ClC=C(Cl)Cl,XSTXAVWGXDQKEL-UHFFFAOYSA-N,-1.96
Urocanic_Acid,,O=C(O)C=CC(N=CN1)=C1,LOIYMIARKYCTBW-UHFFFAOYSA-N,-1.96
"9-(methoxymethoxy)-3-methyl-2,4,4~{a},5,6,7,7~{a},13-octahydro-1~{H}-4,12-methanobenzofuro[3,2-e]isoquinolin-7-ol",,COCOC1=C2OC3C(O)CCC4C5CC(=C2C43CCN5C)C=C1,FCYQIDFMSYIAEB-UHFFFAOYSA-N,-1.96
"2-[4-[(3-bromophenyl)amino]pyrrolo[3,2-g]quinazolin-8-yl]acetic acid",,O=C(O)CN1C=CC2=C1C=C1N=CN=C(NC3=CC(Br)=CC=C3)C1=C2,CBFIWURGLMUIDN-UHFFFAOYSA-N,-1.96
"1h-pyrazol-4-ol, 1-phenyl-",,Oc1cnn(c1)c2ccccc2,PAIIFXHEHLRVNC-UHFFFAOYSA-N,-1.9616
"3(2h)-thiazoleacetic acid, 4-methyl-2-thioxo-",,CC1=CSC(=S)N1CC(O)=O,FVQQWSSTYVBNST-UHFFFAOYSA-N,-1.9632
"3-heptanol, 4-methyl- (van8ci9ci)",,CCCC(C)C(O)CC,BKQICAFAUMRYLZ-UHFFFAOYSA-N,-1.9636
"2-propenoic acid, 3-(1h-imidazol-4-yl)-",,OC(=O)/C=C/c1[nH]cnc1,LOIYMIARKYCTBW-OWOJBTEDSA-N,-1.964
"2-cyclohexene-1,2-dicarboxylic acid, 1-methyl-",,CC1(CCCC=C1C(O)=O)C(O)=O,PCVSTKYNEXPKMI-UHFFFAOYSA-N,-1.9642
2-sulfanylacetic acid,,OC(=O)CS,CWERGRDVMFNCDR-UHFFFAOYSA-N,-1.964349215
"1,6-dioxaspiro[4,4]nonane, 2,2,7,7-tetramethyl-",,CC1(C)CCC2(CCC(C)(C)O2)O1,NJYRFKSWBDHCQL-UHFFFAOYSA-N,-1.9644
flurenol,,OC(=O)[C@@]1(O)c2ccccc2c3ccccc13,GXAMYUGOODKVRM-UHFFFAOYSA-N,-1.9657
(2E)-3-phenylprop-2-enal,,O=C/C=C/c1ccccc1,KJPRLNWUNMBNBZ-QPJJXVBHSA-N,-1.968818258
3-(2-methylphenoxy)pyridazine,,Cc1ccccc1Oc2cccnn2,DNPSYFHJYIRREW-UHFFFAOYSA-N,-1.969
"picric  acid;  2,4,6-trinitrophenol;",,OC1=C(C=C(C=C1[N+]([O-])=O)[N+]([O-])=O)[N+]([O-])=O,OXNIZHLAWKMVMX-UHFFFAOYSA-N,-1.97
5-nitrothiophene-2-carbohydrazide,,C1=C(SC(=C1)[N+](=O)[O-])C(=O)NN,HYYOPSIKJXWRID-UHFFFAOYSA-N,-1.97
(4-aminophenyl)sulfonylurea,,NC(=O)NS(=O)(=O)C1=CC=C(N)C=C1,WVAKABMNNSMCDK-UHFFFAOYSA-N,-1.97
m-fluorobenzoic acid,,OC(=O)c1cccc(F)c1,MXNBDFWNYRNIBH-UHFFFAOYSA-N,-1.9704
p-difluorobenzene,,Fc1ccc(F)cc1,QUGUFLJIAFISSW-UHFFFAOYSA-N,-1.9709
"benzenesulfonamide, 4-(5-hydroxypentyl)-",,N[S](=O)(=O)c1ccc(CCCCCO)cc1,KFRDUIZQGPSJJM-UHFFFAOYSA-N,-1.9712
"2-amino-3,5-dibromo-n-cyclohexyl-n-methylbenzene",,CN(Cc1cc(Br)cc(Br)c1N)C2CCCCC2,OJGDCBLYJGHCIH-UHFFFAOYSA-N,-1.9733
"2,3,4,5,6,7-hexahydro-1H-isoindole-1,3-dione",,O=C1NC(=O)C2=C1CCCC2,AFJWMGOTLUUGHF-UHFFFAOYSA-N,-1.974517726
Acetohexamide,CAS968-81-0,CC(=O)c1ccc(S(=O)(=O)NC(=O)NC2CCCCC2)cc1,VGZSUPCWNCWDAN-UHFFFAOYSA-N,-1.98
"2-naphthalenesulfonic acid, 4-hydroxy-6-(phenyla",,Oc1cc(cc2ccc(Nc3ccccc3)cc12)[S](O)(=O)=O,QEAYLNJEDDOYNQ-UHFFFAOYSA-N,-1.9763
3-amino-4-chlorobenzamide,,NC(=O)c1ccc(Cl)c(N)c1,QHMDKGRWJVOUFU-UHFFFAOYSA-N,-1.976703976
"5-amino-6-methyl-2,3-dihydro-1H-1,3-benzodiazol-2-one",,Cc1cc2NC(=O)Nc2cc1N,ZCXIPVIGYBHUTQ-UHFFFAOYSA-N,-1.977138482
minoxidil,,NC1=CC(=NC(=N)N1O)N2CCCCC2,ZIMGGGWCDYVHOY-UHFFFAOYSA-N,-1.9782
camphor,,CC1(C)C2CCC1(C)C(=O)C2,DSSYKIVIOFKYAU-UHFFFAOYSA-N,-1.9784
3-nitrobenzaldehyde,,[O-][N+](=O)C1=CC=CC(=C1)C=O,ZETIVVHRRQLWFW-UHFFFAOYSA-N,-1.98
naproxen 2-(2-aminoacetoxy)ethyl ester,,COC1=CC=C2C=C(C=CC2=C1)C(C)C(=O)OCCOC(=O)CN,SZSNDQZFLGGEBX-UHFFFAOYSA-N,-1.98
1-(4-hydroxy-3-methylphenyl)-3-methylbutan-1-one,,CC1=C(O)C=CC(C(=O)CC(C)C)=C1,KDSZUDODQQARLW-UHFFFAOYSA-N,-1.98
4-[4-[(tert-butylamino)methyl]phenyl]sulfonylthiophene-2-sulfonamide,,CC(C)(C)NCC1=CC=C(S(=O)(=O)C2=CSC(S(N)(=O)=O)=C2)C=C1,LZPRDWHLIGTSLN-UHFFFAOYSA-N,-1.98
"2,3-dimethylphenol; 2,4-dimethylphenol; 2,5-dimethylphenol; 2,6-dimethylphenol; 3,4-dimethylphenol; 3,5-dimethylphenol",,Cc1ccc(O)c(C)c1.Cc2ccc(C)c(O)c2.Cc3cc(C)cc(O)c3.Cc4ccc(O)cc4C.Cc5cccc(O)c5C.Cc6cccc(C)c6O,YJZHZFOWHRKQHS-UHFFFAOYSA-N,-1.980309796
2-chlorobenzaldehyde,,Clc1ccccc1C=O,FPYUJUBAXZAQNL-UHFFFAOYSA-N,-1.980572221
Eletriptan Hydrobromide,CAS177834-92-3,CN1CCC[C@H]1Cc1c[nH]c2ccc(CCS(=O)(=O)c3ccccc3)cc12,PWVXXGRKLHYWKM-IBGZPJMESA-N,-1.98
"8-[(4-aminophenyl)diazenyl]-7-hydroxy-N,N,N-trimethylnaphthalen-2-aminium chloride",,[Cl-].C[N+](C)(C)c1ccc2ccc(O)c(N=Nc3ccc(N)cc3)c2c1,UXEAWNJALIUYRH-UHFFFAOYSA-N,-1.980785388
"Sparsomycin (3,8mg/ml)",,CSCS(=O)CC(CO)NC(=O)C=Cc1c(C)[nH]c(=O)[nH]c1=O,XKLZIVIOZDNKEQ-UHFFFAOYSA-N,-1.981
"2-(2-amino-1,3-thiazol-4-yl)acetic acid",,Nc1scc(CC(O)=O)n1,DYCLHZPOADTVKK-UHFFFAOYSA-N,-1.981673118
Sibutramine,CAS106650-56-0,CC(C)CC(N(C)C)C1(c2ccc(Cl)cc2)CCC1,UNAANXDKBXWMLN-UHFFFAOYSA-N,-1.98
fervenulin,,CN1C(=O)N(C)c2nncnc2C1=O,RRTKVYSLIGQWCO-UHFFFAOYSA-N,-1.9849
"pyrimido[5,4-d]pyrimidine-2,4,8(3h)-trione, 1,7-",,CN1C=NC2=C(N(C)C(=O)N(C)C2=O)C1=O,SYYPSBXVMCETKL-UHFFFAOYSA-N,-1.985
landrin,,CNC(=O)Oc1cc(C)cc(C)c1C,NYOKZHDTNBDPOB-UHFFFAOYSA-N,-1.9851
linalool,,CC(C)=CCCC(C)(O)C=C,CDOSHBSSFJOMGT-UHFFFAOYSA-N,-1.9871
p-methylsulfonyltoluene,,Cc1ccc(cc1)[S](C)(=O)=O,YYDNBUBMBZRNQQ-UHFFFAOYSA-N,-1.9873
"sodium 2-{[4-(cyclohexylamino)-9,10-dioxo-9,10-dihydroanthracen-1-yl]amino}-5-ethoxybenzene-1-sulfonate",,[Na+].CCOc1cccc2C(=O)c3c(Nc4ccccc4[S]([O-])(=O)=O)ccc(NC5CCCCC5)c3C(=O)c12,OOGKHVOWEZVKKU-UHFFFAOYSA-M,-1.987836786
calcium magnesium(2+) ion dioxidandiide,,[O--].[O--].[Mg++].[Ca++],YLUIKWVQCKSMCF-UHFFFAOYSA-N,-1.988356233
sulfanilyl guanadine,,NC(N)=N[S](=O)(=O)c1ccc(N)cc1,BRBKOPJOKNSWSG-UHFFFAOYSA-N,-1.9885
"2,5-bis(acetoxymethyl)allopurinol",,CC(=O)OC[N]1C=C2C(=O)N(COC(C)=O)C=NC2=N1,DHIFEVBBJSAIAC-UHFFFAOYSA-N,-1.99
3-isothiocyanatophenol,,OC1=CC=CC(=C1)N=C=S,BWZDLMGVEVSNBI-UHFFFAOYSA-N,-1.99
mepivacaine,,CN1CCCCC1C(=O)NC2=C(C)C=CC=C2C,INWLQCZOYSRPNW-UHFFFAOYSA-N,-1.99
"1,3-dihydro-4-ethyl-5-[(pyridin-4-yl)carbonyl]imidazol-2-one",,CCC1=C(NC(=O)N1)C(=O)C2=CC=NC=C2,OQGWJZOWLHWFME-UHFFFAOYSA-N,-1.99
ampicillin,,CC1(C)SC2C(NC(=O)C(N)C3=CC=CC=C3)C(=O)N2C1C(O)=O,AVKUERGKIZMTKX-UHFFFAOYSA-N,-1.99
"quercetin dihydrate; 3,5,7,3',4'-pentahydroxyflavone*2h2o; meletin; sophoretin",,OC1=CC2=C(C(=C1)O)C(=O)C(=C(O2)C3=CC=C(O)C(=C3)O)O,REFJWTPEDVJJIY-UHFFFAOYSA-N,-1.99
"2-sulfamoyl-5-(4-chloro-3-nitrobenzenesulfonamido)-1,3,4-thiadiazole",,N[S](=O)(=O)C1=NN=C(N[S](=O)(=O)C2=CC(=C(Cl)C=C2)[N+]([O-])=O)S1,TVXIRRUAMKXIHC-UHFFFAOYSA-N,-1.99
Dichlorodifluoromethane  ,,FC(F)(Cl)Cl,PXBRQCKWGAHEHS-UHFFFAOYSA-N,-1.99
"N-(2,4-dimethylphenyl)-3-oxobutanamide",,CC(=O)CC(=O)Nc1ccc(C)cc1C,HGVIAKXYAZRSEG-UHFFFAOYSA-N,-1.990078682
"1,3-benzenedicarboxylic acid, 2-nitro-",,OC(=O)c1cccc(C(O)=O)c1[N+]([O-])=O,CAHWDGJDQYAFHM-UHFFFAOYSA-N,-1.9901
"1,4-benzenedicarboxylic acid, 2-methoxy-",,COc1cc(ccc1C(O)=O)C(O)=O,VQBBXLZPRXHYBO-UHFFFAOYSA-N,-1.9916
"3,3,5-trimethylcyclohexanol",,CC1CC(O)CC(C)(C)C1,BRRVXFOKWJKTGG-UHFFFAOYSA-N,-1.991659848
"azinphos-ethyl, o-analog",,CCO[P](=O)(OCC)SCN1N=Nc2ccccc2C1=O,ZADDJRKYRQDYKM-UHFFFAOYSA-N,-1.993
2-[(2-nitrophenyl)amino]ethan-1-ol,,OCCNc1ccccc1[N+]([O-])=O,LFOUYKNCQNVIGI-UHFFFAOYSA-N,-1.993326586
"1,2-cyclopentanedione, dioxime",,ONC1=C(CCC1)N=O,QHWNFVBTROFACM-UHFFFAOYSA-N,-1.9937
alloxantin,,OC1(C(=O)NC(=O)NC1=O)C2(O)C(=O)NC(=O)NC2=O,IWDDXZKCDHOOSF-UHFFFAOYSA-N,-1.9942
"5,6,7,8-tetrahydro-2-naphthol",,Oc1ccc2CCCCc2c1,UMKXSOXZAXIOPJ-UHFFFAOYSA-N,-1.9948
"{[(2R,3S,4R,5R)-5-(6-amino-9H-purin-9-yl)-3,4-dihydroxyoxolan-2-yl]methoxy}phosphonic acid",,Nc1ncnc2n(cnc12)C3OC(CO[P](O)(O)=O)C(O)C3O,UDMBCSSLTHHNCD-UHFFFAOYSA-N,-1.995302619
formothion,,CO[P](=S)(OC)SCC(=O)N(C)C=O,AIKKULXCBHRFOS-UHFFFAOYSA-N,-1.9954
tebuthiuron,,CNC(=O)N(C)c1sc(nn1)C(C)(C)C,HBPDKDSFLXWOAE-UHFFFAOYSA-N,-1.997
oct-7-enal,,C=CCCCCCC=O,LIINGNMKNRSOGW-UHFFFAOYSA-N,-1.997252193
"2,4(1h,3h)-pyrimidinedione, 1-methyl-5-nitro-",,CN1C=C(C(=O)NC1=O)[N+]([O-])=O,JTVBCXIVJCAUBK-UHFFFAOYSA-N,-1.9977
"butane, 2-chloro-3-methoxy-",,COC(C)C(C)Cl,RBFOFWDEFDASDA-UHFFFAOYSA-N,-1.9986
suprofen;  2-[4-(2-thienylcarbonyl)phenyl]propanoic acid,,CC(C(O)=O)C1=CC=C(C=C1)C(=O)C2=CC=CS2,MDKGKXOCJGEUJW-UHFFFAOYSA-N,-2
2-pteridinone,,O=C1NC2=C(C=N1)N=CC=N2,VWXIHLCLIOQWRA-UHFFFAOYSA-N,-2
"1,2-difluorobenzene",,Fc1ccccc1F,GOYDNIKZWGIXJT-UHFFFAOYSA-N,-2
"propane, 1-chloro-2-methyl-",,CC(C)CCl,QTBFPMKWQKYFLR-UHFFFAOYSA-N,-2
"6-chloro-~{N}'-hydroxy-1,3-dihydrobenzo[de]isoquinoline-2-carboximidamide",,NC(=NO)N1CC2=CC=CC3=C(Cl)C=CC(=C23)C1,IUZMBBCCRGRLDI-UHFFFAOYSA-N,-2
1-(2-methoxyphenyl)-N-[1-(2-methoxyphenyl)propan-2-yl]propan-2-amine,,COC1=C(CC(C)NC(C)CC2=C(OC)C=CC=C2)C=CC=C1,SKVZMKWCURTNKK-UHFFFAOYSA-N,-2
atropine,,CN1[C@H]2CC[C@@H]1C[C@@H](C2)OC(=O)C(CO)C1=CC=CC=C1,RKUNBYITZUJHSG-SPUOUPEWSA-N,-2
"1,3-difluorobenzene",,Fc1cccc(F)c1,UEMGWPRHOOEKTA-UHFFFAOYSA-N,-2.000357955
heptenophos,,CO[P](=O)(OC)OC1=C(Cl)C2C=CCC12,GBAWQJNHVWMTLU-UHFFFAOYSA-N,-2.0011
2-chlorobutane,,CCC(C)Cl,BSPCSKHALVHRSR-UHFFFAOYSA-N,-2.001263871
"dcip  (2,2'-oxybis-1-chloropropane)",,CC(CCl)OC(C)CCl,QCFYJCYNJLBDRT-UHFFFAOYSA-N,-2.0027
aniline; formaldehyde,,Nc1ccccc1.C=O,OUCPJZWNFRYRBI-UHFFFAOYSA-N,-2.004092218
5-hydroxyisophthalic acid,,OC(=O)c1cc(O)cc(c1)C(O)=O,QNVNLUSHGRBCLO-UHFFFAOYSA-N,-2.005111367
"benzenesulfonic acid, pentabromo-",,O[S](=O)(=O)c1c(Br)c(Br)c(Br)c(Br)c1Br,ZMOIAEHZILNVCK-UHFFFAOYSA-N,-2.0061
trichloronitromethane,,[O-][N+](=O)C(Cl)(Cl)Cl,LFHISGNCFUNFFM-UHFFFAOYSA-N,-2.0063
"3-[(2-isopropyl-5-methylcyclohexyl)oxy]propane-1,2-diol",,CC(C)C1CCC(C)CC1OCC(O)CO,MDVYIGJINBYKOM-UHFFFAOYSA-N,-2.006358589
"4,4'-dicyano-4,4'azo-di-valeric acid",,C[C@@](CCC([O-])=O)(N=N[C@](C)(CCC([O-])=O)C#N)C#N,VFXXTYGQYWRHJP-TXEJJXNPSA-L,-2.0083
"4-{bis[4-(dimethylamino)phenyl]methylidene}-N,N-dimethylcyclohexa-2,5-dien-1-iminium chloride",,[Cl-].CN(C)c1ccc(cc1)[C+](c2ccc(cc2)N(C)C)c3ccc(cc3)N(C)C,ZXJXZNDDNMQXFV-UHFFFAOYSA-M,-2.008588463
"1,1,1,2-tetrafluoroethane",,FCC(F)(F)F,LVGUZGTVOIAKKC-UHFFFAOYSA-N,-2.008727887
"methoxycarbonylmethyl  2,2-diethylmalonurate",,CCC(CC)(C(=O)NC(N)=O)C(=O)OCC(=O)OC,BZOKLJVQXZIUTK-UHFFFAOYSA-N,-2.01
"2-sulfamoyl-5-(4-chlorobenzenesulfonamido)-1,3,4-thiadiazole",,N[S](=O)(=O)C1=NN=C(N[S](=O)(=O)C2=CC=C(Cl)C=C2)S1,AJSWHUXLZRXPJL-UHFFFAOYSA-N,-2.01
"amidotrizoic  acid;  diatrizoic acid;  3,5-diacetamido-2,4,6-triiodobenzoic acid",,CC(=O)NC1=C(I)C(=C(I)C(=C1I)C(O)=O)NC(C)=O,YVPYQUNUQOZFHG-UHFFFAOYSA-N,-2.01
"3-[(2-Nitrophenyl)hydrazono]-6-oxo-1,4-cyclohexadiene-1-carboxylic acid",,C1=CC=C(C(=C1)NN=C2C=CC(=O)C(=C2)C(=O)O)[N+](=O)[O-],OVZUMYVWPIEZMH-UHFFFAOYSA-N,-2.01
3-(diethylamino)phenol,,CCN(CC)c1cccc(O)c1,WAVOOWVINKGEHS-UHFFFAOYSA-N,-2.011278797
2-(butan-2-yl)phenol,,CCC(C)c1ccccc1O,NGFPWHGISWUQOI-UHFFFAOYSA-N,-2.012377793
Fludarabine 5'-Monophosphate,CAS75607-67-9,Nc1nc(F)nc2c1ncn2[C@@H]1O[C@H](COP(=O)(O)O)[C@@H](O)[C@@H]1O,GIUYCYHIANZCFB-FJFJXFQQSA-N,-2.01
2-(2-butoxyethoxy)ethyl 2-methylprop-2-enoate,,CCCCOCCOCCOC(=O)C(C)=C,QGTBRAFPWNISIJ-UHFFFAOYSA-N,-2.015948507
o-nitrophenoxyacetic acid,,OC(=O)COc1ccccc1[N+]([O-])=O,TYHHDWAHJRRYCU-UHFFFAOYSA-N,-2.016
"3-octanol, (.+-.)-",,CCCCCC(O)CC,NMRPBPVERJPACX-UHFFFAOYSA-N,-2.0171
Amoxicillin,CAS26787-78-0,CC1(C)S[C@@H]2[C@H](NC(=O)[C@H](N)c3ccc(O)cc3)C(=O)N2[C@H]1C(=O)O,LSQZJLSUYDQPKJ-NJBDSQKTSA-N,-2.02
talbutal;  5-allyl-5-sec-butylbarbituric  acid,,CCC(C)C1(CC=C)C(=O)NC(=O)NC1=O,BJVVMKUXKQHWJK-UHFFFAOYSA-N,-2.02
2-benzoylpyridine,,O=C(C1=CC=CC=C1)C2=NC=CC=C2,GCSHUYKULREZSJ-UHFFFAOYSA-N,-2.02
"4-dimethylaminobenzene-1,3-dicarboxylic acid",,CN(C)C1=C(C(=O)O)C=C(C(=O)O)C=C1,CASPLZGZWQCJGG-UHFFFAOYSA-N,-2.02