Name,ID,SMILES,inchi,LogS
,CHEMBL2322780,NC(=O)c1ccc2c(OCCc3cc(sc23)c4n[nH]cc4c5ccccc5Cl)c1,XCYRFSCCDMLRDP-UHFFFAOYSA-N,-4.919958553
"1,4,5-trimethylnaphthalene",,CC1=CC=C(C)C2=C1C=CC=C2C,FSAWRQYDMHSDRN-UHFFFAOYSA-N,-4.92
2-[(4-phenylazophenyl)hydrazono]malononitrile,,N#CC(=NNC1=CC=C(C=C1)N=NC2=CC=CC=C2)C#N,LDBWPTYGGBUCTJ-UHFFFAOYSA-N,-4.92
,CHEMBL1682820,O=C1CCOc2cc(COc3ccccc3)ccc12,LOURISIOISPYCO-UHFFFAOYSA-N,-4.920501464
,CHEMBL2164365,FC(F)(F)Oc1ccc(CNC(=O)C2N(CCc3cnccn3)C(=O)c4ccccc24)cc1,HXQGZVNOPUKCCC-UHFFFAOYSA-N,-4.920553126
oxomanganese,,O=[Mn],VASIZKWUTCETSD-UHFFFAOYSA-N,-4.921453892
"7-hydroxy-3,7-dimethyloctanal; 1H-indole",,CC(CCCC(C)(C)O)CC=O.[nH]1ccc2ccccc12,NSBPKSMZAAJTFE-UHFFFAOYSA-N,-4.92245094
pirimiphos ethyl,,CCO[P](=S)(OCC)Oc1cc(C)nc(n1)N(CC)CC,TZBPRYIIJAJUOY-UHFFFAOYSA-N,-4.9242
Vinclozolin,,CC1(OC(=O)N(C1=O)c2cc(Cl)cc(Cl)c2)C=C,FSCWZHGZWWDELK-UHFFFAOYSA-N,-4.925
"zinc bis[O,O-bis(2-ethylhexyl)] bis(dithiophosphate)",,[Zn++].CCCCC(CC)CO[P]([S-])(=S)OCC(CC)CCCC.CCCCC(CC)CO[P]([S-])(=S)OCC(CC)CCCC,OECQDNKCDGGPFY-UHFFFAOYSA-L,-4.928855971
testosterone formate,,CC12CCC3C(CCC4=CC(=O)CCC34C)C1CCC2OC=O,LMUMOFOWZKACOU-UHFFFAOYSA-N,-4.93
bromopropylate,,CC(C)OC(=O)C(O)(c1ccc(Br)cc1)c2ccc(Br)cc2,FOANIXZHAMJWOI-UHFFFAOYSA-N,-4.933
Bicalutamide,CAS90357-06-5,CC(O)(CS(=O)(=O)c1ccc(F)cc1)C(=O)Nc1ccc(C#N)c(C(F)(F)F)c1,LKJPYSCBVHEWIU-UHFFFAOYSA-N,-4.93
N-(4-carbamoylphenyl)-4-nitrobenzamide,,NC(=O)c1ccc(NC(=O)c2ccc(cc2)[N+]([O-])=O)cc1,FANLHXKNWWSLIG-UHFFFAOYSA-N,-4.936725416
1-(4-chlorophenyl)-2-nitrobenzene,,[O-][N+](=O)c1ccccc1c2ccc(Cl)cc2,OMNWKPZIFZJANV-UHFFFAOYSA-N,-4.937209456
"1,2-dibromotetrafluoroethane",,FC(F)(Br)C(F)(F)Br,KVBKAPANDHPRDG-UHFFFAOYSA-N,-4.9376
"n1-(3,4-dichlorophenyl)sulfanilamide;  3,4-dichloro-1-sulfabenzene",,NC1=CC=C(C=C1)[S](=O)(=O)NC2=CC=C(Cl)C(=C2)Cl,CDCMAMVXGZBIAX-UHFFFAOYSA-N,-4.94
"tris(2,3-dibromopropyl) phosphate",,BrCC(Br)CO[P](=O)(OCC(Br)CBr)OCC(Br)CBr,PQYJRMFWJJONBO-UHFFFAOYSA-N,-4.9405
hexachlorocyclohexane,,ClC1CC(Cl)(Cl)C(Cl)C(Cl)C1Cl.ClC2CCC(Cl)(Cl)C(Cl)C2(Cl)Cl.ClC3C(Cl)C(Cl)C(Cl)C(Cl)C3Cl,REDUMVQOCNAQCW-UHFFFAOYSA-N,-4.9408
clodinafop-propargyl,,C[C@@H](Oc1ccc(Oc2ncc(Cl)cc2F)cc1)C(=O)OCC#C,JBDHZKLJNAIJNC-LLVKDONJSA-N,-4.9417
"1-(2,3,8,8-tetramethyl-1,3,4,5,6,7-hexahydronaphthalen-2-yl)ethanone",,CC1CC2=C(CC1(C)C(C)=O)C(C)(C)CCC2,FVUGZKDGWGKCFE-UHFFFAOYSA-N,-4.941791315
bis(ethylxanthogen),,CCOC(=S)SSC(=S)OCC,FVIGODVHAVLZOO-UHFFFAOYSA-N,-4.9432
tri(propan-2-yl)silyl prop-2-enoate,,CC(C)[Si](OC(=O)C=C)(C(C)C)C(C)C,PQSIXYSSKXAOFE-UHFFFAOYSA-N,-4.943737963
"[2-butyl-4-chloro-1-({4-[2-(2H-1,2,3,4-tetrazol-5-yl)phenyl]phenyl}methyl)-1H-imidazol-5-yl]methanol",,CCCCc1nc(Cl)c(CO)n1Cc2ccc(cc2)c3ccccc3c4n[nH]nn4,PSIFNNKUMBGKDQ-UHFFFAOYSA-N,-4.945016986
delmadinone acetate,,CC(=O)OC1(CCC2C3C=C(Cl)C4=CC(=O)C=CC4(C)C3CCC12C)C(C)=O,CGBCCZZJVKUAMX-UHFFFAOYSA-N,-4.9453
bromobutide,,CC(C)(C)C(Br)C(=O)NC(C)(C)c1ccccc1,WZDDLAZXUYIVMU-UHFFFAOYSA-N,-4.9455
"(8R,9S,13S,14S,17S)-17-hydroxy-13-methyl-2,4,6,7,8,9,11,12,14,15,16,17-dodecahydro-1H-cyclopenta[a]phenanthren-3-one",,C[C@]12CC[C@H]3[C@@H](CCC4=C3CCC(=O)C4)[C@@H]1CC[C@@H]2O,BAZGVDKAIHZPOH-ZBRFXRBCSA-N,-4.947028744
dienestrol,,C/C=C(c1ccc(O)cc1)/C(=C/C)c2ccc(O)cc2,NFDFQCUYFHCNBW-SCGPFSFSSA-N,-4.948
pyrazophos,,CCOC(=O)c1cn2nc(O[P](=S)(OCC)OCC)cc2nc1C,JOOMJVFZQRQWKR-UHFFFAOYSA-N,-4.9489
"phenol, 2,2'-thiobis 4,6-dichloro-",,Oc1c(Cl)cc(Cl)cc1Sc2cc(Cl)cc(Cl)c2O,JFIOVJDNOJYLKP-UHFFFAOYSA-N,-4.9495
"2,2',4-trichlorodiphenyl ether",,Clc1ccc(Oc2ccccc2Cl)c(Cl)c1,YXMNUPKWUMIZAV-UHFFFAOYSA-N,-4.9499
Dienestrol,,c1cc(O)ccc1C(C=C)C(C=C)c2ccc(O)cc2,UBEHJDYYBJLBAZ-UHFFFAOYSA-N,-4.95
Dienestrol,,CC=C(C(=CC)c1ccc(O)cc1)c2ccc(O)cc2,NFDFQCUYFHCNBW-UHFFFAOYSA-N,-4.95
"2-acetyl-4-({4-[(3-acetyl-4-amino-9,10-dioxo-9,10-dihydroanthracen-1-yl)amino]-6-phenyl-1,3,5-triazin-2-yl}amino)-1-amino-9,10-dihydroanthracene-9,10-dione",,CC(=O)c1cc(Nc2nc(Nc3cc(C(C)=O)c(N)c4C(=O)c5ccccc5C(=O)c34)nc(n2)c6ccccc6)c7C(=O)c8ccccc8C(=O)c7c1N,QHUKBYLVVVMGRT-UHFFFAOYSA-N,-4.950431795
zinc(2+) ion didodecanoate,,[Zn++].CCCCCCCCCCCC([O-])=O.CCCCCCCCCCCC([O-])=O,GPYYEEJOMCKTPR-UHFFFAOYSA-L,-4.950531484
"4-[2-(4-hydroxy-3,5-dimethylphenyl)propan-2-yl]-2,6-dimethylphenol",,Cc1cc(cc(C)c1O)C(C)(C)c2cc(C)c(O)c(C)c2,ODJUOZPKKHIEOZ-UHFFFAOYSA-N,-4.952868803
"3,7,11-trimethyldodec-1-yn-3-ol",,CC(C)CCCC(C)CCCC(C)(O)C#C,OWRXWSVBJIIORE-UHFFFAOYSA-N,-4.953059619
"1,1,2-trifluoro-2-(pentafluoroethoxy)ethene",,FC(F)=C(F)OC(F)(F)C(F)(F)F,GWTYBAOENKSFAY-UHFFFAOYSA-N,-4.954296793
fenclorim,,Clc1cc(Cl)nc(n1)c2ccccc2,NRFQZTCQAYEXEE-UHFFFAOYSA-N,-4.9544
,CHEMBL1783261,COc1ccc(OC)c(c1)c2cccc3c(N)c(nnc23)C(=O)NCCCO,QGYLDRPCDBYKAP-UHFFFAOYSA-N,-4.958327968
,CHEMBL2164378,FC(F)(F)CCN1C(C(=O)NCc2ccc(OC(F)(F)F)cc2)c3ccccc3C1=O,GZVWSNMZCUTRBS-UHFFFAOYSA-N,-4.958380068
bis(2-butoxyethyl) adipate,,CCCCOCCOC(=O)CCCCC(=O)OCCOCCCC,IHTSDBYPAZEUOP-UHFFFAOYSA-N,-4.958733139
2-butyloctanoic acid,,CCCCCCC(CCCC)C(O)=O,OARDBPIZDHVTCK-UHFFFAOYSA-N,-4.959305967
dinocap,,C/C=C/C(=O)Oc1c(cc(cc1C(C)(C)CC(C)(C)C)[N+]([O-])=O)[N+]([O-])=O,RDUUEJDFJHUJFG-BQYQJAHWSA-N,-4.9595
n-phenylanthranilic  acid;  fenamic  acid,,OC(=O)C1=CC=CC=C1NC2=CC=CC=C2,ZWJINEZUASEZBH-UHFFFAOYSA-N,-4.96
equilenin,,CC12CCC3=C(C=CC4=C3C=CC(=C4)O)C1CCC2=O,PDRGHUMCVRDZLQ-UHFFFAOYSA-N,-4.96
"1,3-dipropyl-8-cyclopentylxanthine",,CCCN1C(=O)N(CCC)C2=C([NH]C(=N2)C3CCCC3)C1=O,FFBDFADSZUINTG-UHFFFAOYSA-N,-4.96
(4-nitrophenyl) diphenyl phosphate,,C1=CC=C(C=C1)OP(=O)(OC2=CC=CC=C2)OC3=CC=C(C=C3)[N+](=O)[O-],UJNGLGOZLJRNNN-UHFFFAOYSA-N,-4.96
"3-methyl-N-(3-{3-methyl-N-[2-(3-methyl-N-{2-[2-(2-methylheptadecyl)-4,5-dihydro-1H-imidazol-1-yl]ethyl}octadecanamido)ethyl]octadecanamido}propyl)octadecanamide; 3-methyl-N-(3-{[2-(3-methyl-N-{2-[2-(2-methylheptadecyl)-4,5-dihydro-1H-imidazol-1-yl]ethyl}octadecanamido)ethyl]amino}propyl)octadecanamide; 3-methyl-N-(3-{[2-({2-[2-(2-methylheptadecyl)-4,5-dihydro-1H-imidazol-1-yl]ethyl}amino)ethyl]amino}propyl)octadecanamide; 3-methyl-N-[3-({2-[(2-{[2-(3-methyloctadecanamido)ethyl]amino}ethyl)amino]ethyl}amino)propyl]octadecanamide; 3-methyl-N-{2-[(2-{3-methyl-N-[2-(piperazin-1-yl)ethyl]octadecanamido}ethyl)amino]ethyl}octadecanamide; 3-methyl-N-{2-[2-(2-methylheptadecyl)-4,5-dihydro-1H-imidazol-1-yl]ethyl}-N-[2-(piperazin-1-yl)ethyl]octadecanamide; 3-methyl-N-{3-[(2-{3-methyl-N-[2-({2-[(4-methylnonadec-1-en-2-yl)amino]ethyl}amino)ethyl]octadecanamido}ethyl)amino]propyl}octadecanamide",,CCCCCCCCCCCCCCCCCC(O)=O.NCCNCCNCCNCCN,CDCSRZWJRXOXLQ-UHFFFAOYSA-N,-4.960419449
10-(prop-2-enoyloxy)decyl prop-2-enoate,,C=CC(=O)OCCCCCCCCCCOC(=O)C=C,RHNJVKIVSXGYBD-UHFFFAOYSA-N,-4.960875455
fentiazac,,OC(=O)Cc1sc(nc1c2ccc(Cl)cc2)c3ccccc3,JIEKMACRVQTPRC-UHFFFAOYSA-N,-4.9644
,CHEMBL1783286,COc1ncc(C)cc1c2cccc3c(N)c(nnc23)C(=O)NC4CC4,QPBUEBDNKGGQCP-UHFFFAOYSA-N,-4.96628264
"5-[(4-chloro-2-nitrophenyl)diazenyl]-1-ethyl-6-hydroxy-4-methyl-2-oxo-1,2-dihydropyridine-3-carbonitrile",,CCN1C(=O)C(=N/Nc2ccc(Cl)cc2[N+]([O-])=O)/C(=C(C#N)C1=O)C,PJLZYPHMHUHUMN-CPNJWEJPSA-N,-4.96733793
deoxycorticosterone  acetate,,CC(=O)OCC(=O)C1CCC2C3CCC4=CC(=O)CCC4(C)C3CCC12C,VPGRYOFKCNULNK-UHFFFAOYSA-N,-4.97
"2,5-dichlorodiphenyl ether",,Clc1ccc(Cl)c(Oc2ccccc2)c1,VITXVDNQHXYQSK-UHFFFAOYSA-N,-4.9703
"1,3,5-triazinane-2,4,6-trione; 1,3,5-triazine-2,4,6-triamine",,Nc1nc(N)nc(N)n1.O=C2NC(=O)NC(=O)N2,ZQKXQUJXLSSJCH-UHFFFAOYSA-N,-4.975513502
[(1S)-3-(4-methylpent-3-enyl)-1-cyclohex-3-enyl]methyl acetate,,CC(=O)OC[C@H]1CCC=C(CCC=C(C)C)C1,IIUKCYITROTKFB-HNNXBMFYSA-N,-4.975624785
"10h-phenothiazine, 2-chloro-7-methoxy-",,COc1ccc2Nc3cc(Cl)ccc3Sc2c1,VGCKEWCZFDSELD-UHFFFAOYSA-N,-4.9787
"3-methoxyestra-2,5(10)-dien-17-one",,COC1=CCC2=C(CCC3C2CCC4(C)C3CCC4=O)C1,NSUVCVKCWGOYPV-UHFFFAOYSA-N,-4.979874504
stearic  acid;  octadecanoic  acid,,CCCCCCCCCCCCCCCCCC(O)=O,QIQXTHQIDYTFRH-UHFFFAOYSA-N,-4.98
"4,5,7-Trichloro-2,1,3-benzothiadiazole",,c1c(Cl)c(Cl)c2nsnc2c1Cl,SZYWFOPNFNROQB-UHFFFAOYSA-N,-4.98
Everolimus,CAS159351-69-6,CO[C@H]1C[C@@H]2CC[C@@H](C)[C@@](O)(O2)C(=O)C(=O)N2CCCC[C@H]2C(=O)O[C@H]([C@H](C)C[C@@H]2CC[C@@H](OCCO)[C@H](OC)C2)CC(=O)[C@H](C)/C=C(\C)[C@@H](O)[C@@H](OC)C(=O)[C@H](C)C[C@H](C)/C=C/C=C/C=C/1C,HKVAMNSJSFKALM-GKUWKFKPSA-N,-4.98
dodecan-1-ol,,CCCCCCCCCCCCO,LQZZUXJYWNFBMV-UHFFFAOYSA-N,-4.984746451
"2,5-dianilinoterephthalic acid",,OC(=O)c1cc(Nc2ccccc2)c(cc1Nc3ccccc3)C(O)=O,ZJQZWNLKRBUEKX-UHFFFAOYSA-N,-4.985723288
decyl acetate,,CCCCCCCCCCOC(C)=O,NUPSHWCALHZGOV-UHFFFAOYSA-N,-4.985758302
4-methoxy-3-nitro-N-phenylbenzamide,,COc1ccc(cc1[N+]([O-])=O)C(=O)Nc2ccccc2,YKOCPBMVMBUTAX-UHFFFAOYSA-N,-4.987825809
"leptophos, o-analog",,CO[P](=O)(OC1=C(Cl)C=C(Br)C(=C1)Cl)C2=CC=CC=C2,MAKUYRKZFGSMMG-UHFFFAOYSA-N,-4.99
equilin,,CC12CCC3C(=CCC4=C3C=CC(=C4)O)C1CCC2=O,WKRLQDKEXYKHJB-UHFFFAOYSA-N,-4.99
methyl 5-amino-4-cyano-3-methylthiophene-2-carboxylate,,COC(=O)c1sc(N)c(C#N)c1C,PDDIXJQTRLVRCG-UHFFFAOYSA-N,-4.991737621
"17-Hydroxy-19-norpregn-4-ene-3,20-dione 17-acetate",,CC(=O)O[C@@]1(CC[C@H]2[C@@H]3CCC4=CC(=O)CC[C@@H]4[C@H]3CC[C@]12C)C(C)=O,MTSLFKWJINJVBO-ZCPXKWAGSA-N,-4.995753937
,CHEMBL1682833,CS(=O)(=O)N1CCOc2cc(COc3ccccc3)cnc12,CAQVASBHJSOHTF-UHFFFAOYSA-N,-4.99962443
,CHEMBL1209656,Fc1ccc(cc1F)S(=O)(=O)NCC(N2CCCCCC2)c3ccccc3,WTSZLZHUXCBOEB-UHFFFAOYSA-N,-4.999639467
,CHEMBL1209583,FC(F)(F)Oc1ccccc1S(=O)(=O)NCC(N2CCCCCC2)c3ccccc3,HTUBSQKLDNWSEN-UHFFFAOYSA-N,-4.999660085
,CHEMBL1682806,Cn1cnc2cc(ccc12)C#Cc3ccccc3,JJUFSGIIQIFBBK-UHFFFAOYSA-N,-4.999663414
,CHEMBL2335906,C[C@@H](NC1=CC(=O)CNC1)c2ccc(Nc3ncc4cc(ccc4n3)c5ccncc5)cc2,MMOHLOVDPKIQDH-QGZVFWFLSA-N,-4.999692618
,CHEMBL2414326,COc1cncc(c1)c2cccc(c2)c3cn4cccc(C(=O)N(C)C)c4n3,QFGCUWAPBLROSK-UHFFFAOYSA-N,-4.999695094
,CHEMBL2414329,COc1cncc(c1)c2cccc(c2)c3cn4ccnc(C(=O)N)c4n3,OZGIVFAWFVZONC-UHFFFAOYSA-N,-4.999713907
titanium dioxide,,O=[Ti]=O,GWEVSGVZZGPLCZ-UHFFFAOYSA-N,-4.999994562
8-phenyltheophylline,,CN1C(=O)N(C)C2=C([NH]C(=N2)C3=CC=CC=C3)C1=O,PJFMAVHETLRJHJ-UHFFFAOYSA-N,-5
"7-chloro-3'-ethoxy-4,6-dimethoxy-5'-methylspiro[1-benzofuran-2,4'-cyclohex-2-ene]-1',3-dione",,CCOC1=CC(=O)CC(C)C12OC1=C(C2=O)C(OC)=CC(OC)=C1Cl,VHXBNOUUDLLFER-UHFFFAOYSA-N,-5
"6-methoxy-3-methylfuro[3,2-g]chromen-7-one",,COC1=CC2=C(C=C3OC=C(C)C3=C2)OC1=O,BDLQXDUSRMYDNS-UHFFFAOYSA-N,-5
"2,3,6-trimethylnaphthalene",,Cc1ccc2cc(C)c(C)cc2c1,UNBZRJCHIWTUHB-UHFFFAOYSA-N,-5.0007
2-methyldodecan-1-ol,,CC(C)CCCCCCCCCCO,XUJLWPFSUCHPQL-UHFFFAOYSA-N,-5.000794033
Tacrolimus,CAS104987-11-3,C=CC[C@@H]1/C=C(\C)C[C@H](C)C[C@H](OC)[C@H]2O[C@@](O)(C(=O)C(=O)N3CCCC[C@H]3C(=O)O[C@H](/C(C)=C/[C@@H]3CC[C@@H](O)[C@H](OC)C3)[C@H](C)[C@@H](O)CC1=O)[C@H](C)C[C@@H]2OC,QJJXYPPXXYFBGM-LFZNUXCKSA-N,-5
NEFAZODONE,CHEMBL623,CCC1=NN(CCCN2CCN(CC2)c3cccc(Cl)c3)C(=O)N1CCOc4ccccc4,VRBKIVRKKCLPHA-UHFFFAOYSA-N,-5.003638344
17-hydroxy-1-methylandrostan-3-one,,C[C@H]1CC(=O)C[C@@H]2CC[C@H]3[C@@H]4CC[C@H](O)[C@@]4(C)CC[C@@H]3[C@@]12C,UXYRZJKIQKRJCF-TZPFWLJSSA-N,-5.006428958
propoxyphene,,CCC(=O)O[C@@](Cc1ccccc1)([C@H](C)CN(C)C)c2ccccc2,XLMALTXPSGQGBX-GCJKJVERSA-N,-5.0097
"n-(2,4-dibromophenyl)benzenesulfonamide",,BrC1=CC=C(N[S](=O)(=O)C2=CC=CC=C2)C(=C1)Br,KVYZUAZCQPQRPI-UHFFFAOYSA-N,-5.01
fluenetil,,FCCOC(=O)CC1=CC=C(C=C1)C2=CC=CC=C2,XAERLJMOUYEBAB-UHFFFAOYSA-N,-5.01
kni-727,,CC1=C(OCC(=O)NC(CC2=CC=CC=C2)C(O)C(=O)N3CSC(C)(C)C3C(=O)NC(C)(C)C)C(=CC=C1)C,CSWRAOHDICNMPU-UHFFFAOYSA-N,-5.01
1-methyl-4-(propan-2-yl)cyclohex-1-ene,,CC(C)C1CCC(=CC1)C,FAMJUFMHYAFYNU-UHFFFAOYSA-N,-5.010343937
"5-hydroxy-2-(3-hydroxy-4-methoxyphenyl)-4-oxo-3,4-dihydro-2H-chromen-7-yl 6-O-(6-deoxy-alpha-L-mannopyranosyl)-beta-D-glucopyranoside",,COc1ccc(cc1O)[C@@H]2CC(=O)c3c(O)cc(O[C@@H]4O[C@H](CO[C@@H]5O[C@@H](C)[C@H](O)[C@@H](O)[C@H]5O)[C@@H](O)[C@H](O)[C@H]4O)cc3O2,QUQPHWDTPGMPEX-QJBIFVCTSA-N,-5.010485646
"(diphenylphosphoroso)(2,4,6-trimethylphenyl)methanone",,Cc1cc(C)c(c(C)c1)C(=O)[P](=O)(c2ccccc2)c3ccccc3,VFHVQBAGLAREND-UHFFFAOYSA-N,-5.010576791
Temsirolimus,CAS162635-04-3,CO[C@H]1C[C@@H]2CC[C@@H](C)[C@@](O)(O2)C(=O)C(=O)N2CCCC[C@H]2C(=O)O[C@H]([C@H](C)C[C@@H]2CC[C@@H](OC(=O)C(C)(CO)CO)[C@H](OC)C2)CC(=O)[C@H](C)/C=C(\C)[C@@H](O)[C@@H](OC)C(=O)[C@H](C)C[C@H](C)/C=C/C=C/C=C/1C,CBPNZQVSJQDFBE-FUXHJELOSA-N,-5.01
digadolinium trioxide,,[O--].[O--].[O--].[Gd+3].[Gd+3],CMIHHWBVHJVIGI-UHFFFAOYSA-N,-5.015236372
cobalt sulphide,,[S--].[Co++],INPLXZPZQSLHBR-UHFFFAOYSA-N,-5.015250193
epn,,CCO[P](=S)(Oc1ccc(cc1)[N+]([O-])=O)c2ccccc2,AIGRXSNSLVJMEA-UHFFFAOYSA-N,-5.0169
quizalofop-p-tefuryl,,CC(OC1=CC=C(OC2=NC3=C(C=C(Cl)C=C3)N=C2)C=C1)C(=O)OC4CCCO4,JZCPOTMKOXYURK-UHFFFAOYSA-N,-5.02
2-carboxy-7-methylsulfinylxanthone; 7-methylsulfinylxanthone-2-carboxylic acid; 7-methylsulfinyl-9-oxo-9h-xanthene-2-carboxylic acid,,C[S](=O)C1=CC=C2OC3=C(C=C(C=C3)C(O)=O)C(=O)C2=C1,PCVFKIXSNYJABV-UHFFFAOYSA-N,-5.02
"3-[(2-ethylhexanoyl)oxy]-2,2-dimethylpropyl 2-ethylhexanoate",,CCCCC(CC)C(=O)OCC(C)(C)COC(=O)C(CC)CCCC,GORMSINSWZJIKL-UHFFFAOYSA-N,-5.02063787
,CHEMBL1783246,CCCNC(=O)c1nnc2c(cccc2c1N)c3ccccc3,HLKQVESZETYPOB-UHFFFAOYSA-N,-5.021975847
dipraseodymium(3+) ion tricarbonate,,[Pr+3].[Pr+3].[O-]C([O-])=O.[O-]C([O-])=O.[O-]C([O-])=O,XIRHLBQGEYXJKG-UHFFFAOYSA-H,-5.022027024
"2-(3,8-dimethyl-1,2,3,4,5,6,7,8-octahydroazulen-5-yl)propan-2-yl acetate",,CC1CCC(CC2=C1CCC2C)C(C)(C)OC(C)=O,DRFSOBZVMGLICQ-UHFFFAOYSA-N,-5.022602512
oxostibanyl stibinate,,[O--].[O--].[O--].[Sb+3].[Sb+3],GHPGOEFPKIHBNM-UHFFFAOYSA-N,-5.023754804
"2,3-dichloro-1,4-naphthoquinone",,ClC1=C(Cl)C(=O)c2ccccc2C1=O,SVPKNMBRVBMTLB-UHFFFAOYSA-N,-5.023776406
aclonifen,,Nc1c(Cl)c(Oc2ccccc2)ccc1[N+]([O-])=O,DDBMQDADIHOWIC-UHFFFAOYSA-N,-5.0248
Boehmite (Al(OH)O),,[OH-].[O--].[Al+3],VXAUWWUXCIMFIM-UHFFFAOYSA-M,-5.025247952
quinonamid,,ClC(Cl)C(=O)NC1=C(Cl)C(=O)c2ccccc2C1=O,ZIEWAMOXCOLNSJ-UHFFFAOYSA-N,-5.0261
,CHEMBL1783287,COc1ncccc1c2cccc3c(N)c4C(=O)N(Cc4nc23)C5CCC5,NRBRKRZMKXLHTR-UHFFFAOYSA-N,-5.026569135
mcpa-thioethyl,,CCSC(=O)COc1ccc(Cl)cc1C,AZFKQCNGMSSWDS-UHFFFAOYSA-N,-5.027
"7-chloro-5-(2-chlorophenyl)-2-oxo-2,3-dihydro-1H-1,4-benzodiazepin-3-yl acetate",,CC(=O)OC1N=C(c2ccccc2Cl)c3cc(Cl)ccc3NC1=O,CYDZMDOLVUBPNL-UHFFFAOYSA-N,-5.028666923
2-(chloromethyl)oxirane; 4-[2-(4-hydroxyphenyl)propan-2-yl]phenol,,CC(C)(c1ccc(O)cc1)c2ccc(O)cc2.ClCC3CO3,KUBDPQJOLOUJRM-UHFFFAOYSA-N,-5.029134765
Quinonamid,,ClC(Cl)CC(=O)NC2=C(Cl)C(=O)c1ccccc1C2=O,DHTZKRIZYPAKLO-UHFFFAOYSA-N,-5.03
quizalofop-p-tefuryl,,CC(Oc1ccc(Oc2cnc3cc(Cl)ccc3n2)cc1)C(=O)OCC4CCCO4,BBKDWPHJZANJGB-UHFFFAOYSA-N,-5.0303
"2,4a,5,8a-tetramethyl-1,2,3,4,4a,7,8,8a-octahydronaphthalen-1-yl formate",,CC1CCC2(C)C(=CCCC2(C)C1OC=O)C,DAWDTDPJINNEJM-UHFFFAOYSA-N,-5.031142113
quininone,,COc1ccc2nccc(C(=O)C3CC4CCN3CC4C=C)c2c1,SRFCUPVBYYAMIL-UHFFFAOYSA-N,-5.0313
neodymium(3+) ion trihydroxide,,[OH-].[OH-].[OH-].[Nd+3],ZBAQHMBLDSQPHC-UHFFFAOYSA-K,-5.035343004
tetrachlorophthalide,,Clc1c(Cl)c(Cl)c2C(=O)OCc2c1Cl,NMWKWBPNKPGATC-UHFFFAOYSA-N,-5.0365
"2,4-dioxo-1,3-diazetidine-1,3-bis(methyl-m-phenylene) diisocyanate",,Cc1ccc(cc1N=C=O)N2C(=O)N(c3ccc(C)c(c3)N=C=O)C2=O,LOCPTSFJZDIICR-UHFFFAOYSA-N,-5.03682594
nitrothal-isopropyl,,CC(C)OC(=O)c1cc(cc(c1)[N+]([O-])=O)C(=O)OC(C)C,VJAWBEFMCIINFU-UHFFFAOYSA-N,-5.0389
"diclofop;  (rs)-2-[4-(2,4-dichlorophenoxy)phenoxy]propanoic acid",,CC(OC1=CC=C(OC2=C(Cl)C=C(Cl)C=C2)C=C1)C(O)=O,OOLBCHYXZDXLDS-UHFFFAOYSA-N,-5.04
"7-(3-amino-2,3-dimethylazetidin-1-yl)-1-cyclopropyl-6,8-difluoro-4-oxoquinoline-3-carboxylic acid",,CC1N(C2=C(F)C3=C(C=C2F)C(=O)C(C(=O)O)=CN3C2CC2)CC1(C)N,FNYQALWNSAGHJV-UHFFFAOYSA-N,-5.04
"1,2,3-tribromobenzene",,Brc1cccc(Br)c1Br,GMVJKSNPLYBFSO-UHFFFAOYSA-N,-5.0402
anthracene; benzene; ethylbenzene; naphthalene; tetradecane,,CCCCCCCCCCCCCC.CCc1ccccc1.c2ccccc2.c3ccc4ccccc4c3.c5ccc6cc7ccccc7cc6c5,PBMFOKZETGSLTK-UHFFFAOYSA-N,-5.041697833
1-chloro-2-(trichloromethyl)benzene,,Clc1ccccc1C(Cl)(Cl)Cl,MFHPYLFZSCSNST-UHFFFAOYSA-N,-5.043933097
,CHEMBL1209511,Brc1ccc(s1)S(=O)(=O)NCC(N2CCCCCC2)c3ccccc3,JNXSTHFEQMMEPV-UHFFFAOYSA-N,-5.044402243
,CHEMBL2322774,NC(=O)c1ccc2c(OCCc3cc(sc23)c4nncn4c5ccccc5Cl)c1,HQQMOSDGLIFYLI-UHFFFAOYSA-N,-5.044904706
,CHEMBL1208942,COc1cc(F)ccc1C(CNS(=O)(=O)c2ccc(Cl)cc2)N3CCCCCC3,WIXOLNPEGQOILP-UHFFFAOYSA-N,-5.044942887
"5-chloro-2-(2,4-dichlorophenoxy)aniline",,Nc1cc(Cl)ccc1Oc2ccc(Cl)cc2Cl,SOOLDKUMSVNBIW-UHFFFAOYSA-N,-5.045264286
,CHEMBL1209659,Fc1ccc(cc1)S(=O)(=O)NCC(N2CCCCCC2)c3ccccc3,XCTJKACOVJDFKO-UHFFFAOYSA-N,-5.045379055
,CHEMBL1208880,NS(=O)(=O)c1ccc(cc1)C(CNS(=O)(=O)c2ccc(cc2)C(F)(F)F)N3CCCCCC3,PEEZAJHXDYUFAT-UHFFFAOYSA-N,-5.045380804
,CHEMBL2335893,COCCC(=O)N[C@H](C)c1ccc(Nc2ncc3cc(ccc3n2)c4ccncc4)cc1,IDMVTOZYZLLLTD-QGZVFWFLSA-N,-5.045453454
,CHEMBL2335894,COCCC(=O)N[C@@H](C)c1ccc(Nc2ncc3cc(ccc3n2)c4ccncc4)cc1,IDMVTOZYZLLLTD-KRWDZBQOSA-N,-5.045453454
hexyl 2-hydroxybenzoate,,CCCCCCOC(=O)c1ccccc1O,DUKPKQFHJQGTGU-UHFFFAOYSA-N,-5.045878208
"2,2,5-trimethylhexane",,CC(C)CCC(C)(C)C,HHOSMYBYIHNXNO-UHFFFAOYSA-N,-5.0474
tiocarbazil,,CCC(C)N(C(C)CC)C(=O)SCc1ccccc1,PHSUVQBHRAWOQD-UHFFFAOYSA-N,-5.0484
hydrate lithium potassium titanium,,[Li].O.[K].[Ti],UFWQXTAKIFGGMA-UHFFFAOYSA-N,-5.048911582
n1-(2-chlorophenyl)-2-methylsulfanilamide; 2-chloro-1-(4-amino-2-methylphenylsulfonamido)benzene,,CC1=C(C=CC(=C1)N)[S](=O)(=O)NC2=C(Cl)C=CC=C2,RYGRTXQPJZRDAK-UHFFFAOYSA-N,-5.05
,CHEMBL1783253,COc1ccc(OC)c(c1)c2cccc3c(N)c(nnc23)C(=O)NC4CC4,YVAHCWLEKOONFT-UHFFFAOYSA-N,-5.050316162
isononene,,CCCCCCCC=C,JRZJOMJEPLMPRA-UHFFFAOYSA-N,-5.052
2-ethylhexyl 4-aminobenzoate,,CCCCC(CC)COC(=O)c1ccc(N)cc1,ZJQXUTDROPGVLH-UHFFFAOYSA-N,-5.054393659
,CHEMBL1783271,COc1ccc(OC)c(c1)c2c(F)ccc3c(N)c(nnc23)C(=O)NC4CC4,WEFRNUXPTYTOEU-UHFFFAOYSA-N,-5.055237982
11-ethyl-5-methylpentadecanoic acid,,CCCCC(CC)CCCCCC(C)CCCC(O)=O,DYGIZCLLGGJWQJ-UHFFFAOYSA-N,-5.056117837
phenisopham,,CCN(C(=O)Oc1cccc(NC(=O)OC(C)C)c1)c2ccccc2,PWEOEHNGYFXZLI-UHFFFAOYSA-N,-5.0574
"A mixture of: bis(2,2,6,6-tetramethyl-1-octyloxypiperidin-4-yl)-1,10-decanedioate; 1,8-bis[(2,2,6,6-tetramethyl-4-((2,2,6,6-tetramethyl-1-octyloxypiperidin-4-yl)-decan-1,10-dioyl)piperidin-1-yl)oxy]octane",,CCCCCCCC.CC(C)(C)OO.CC1(C)CC(CC(C)(C)N1)OC(=O)CCCCCCCCC(=O)OC2CC(C)(C)NC(C)(C)C2,FNRJJSFGQVCXEK-UHFFFAOYSA-N,-5.05759511
"2,6-di-sec-butylphenol",,CC[C@@H](C)c1cccc([C@@H](C)CC)c1O,FHTGJZOULSYEOB-PHIMTYICSA-N,-5.0593
tolfenamic acid;  n-(2-methyl-3-chlorophenyl)anthranilic  acid,,CC1=C(NC2=CC=CC=C2C(O)=O)C=CC=C1Cl,YEZNLOUZAIOMLT-UHFFFAOYSA-N,-5.06
n-(3-tolyl)anthranilic  acid;  2-(3-tolylamino)benzoic acid,,CC1=CC=CC(=C1)NC2=CC=CC=C2C(O)=O,JODCQKTVDXZQEP-UHFFFAOYSA-N,-5.06
"n,n-(dicyclohexyl)acetamido  benzoate;  analog 29",,O=C(COC(=O)C1=CC=CC=C1)N(C2CCCCC2)C3CCCCC3,XDEYTBJLAPSTGO-UHFFFAOYSA-N,-5.06
"2,6-dichlorodiphenyl ether",,Clc1cccc(Cl)c1Oc2ccccc2,IRLZOQDGEAEIPX-UHFFFAOYSA-N,-5.0605
Clotrimazole,CAS23593-75-1,Clc1ccccc1C(c1ccccc1)(c1ccccc1)n1ccnc1,VNFPBHJOKIVQEB-UHFFFAOYSA-N,-5.06
fenbufen,,OC(=O)CCC(=O)c1ccc(cc1)c2ccccc2,ZPAKPRAICRBAOD-UHFFFAOYSA-N,-5.0609
dodecanal,,CCCCCCCCCCCC=O,HFJRKMMYBMWEAD-UHFFFAOYSA-N,-5.061459548
"(Z)-N-(4-chloro-2,5-dimethoxyphenyl)-3-hydroxynaphthalene-2-carboximidic acid",,COc1cc(NC(=O)c2cc3ccccc3cc2O)c(OC)cc1Cl,QIHKTBRNOLQDGQ-UHFFFAOYSA-N,-5.062270146
"(2R)-2-[(2R,3R,4S)-3,4-dihydroxyoxolan-2-yl]-2-hydroxyethyl dodecanoate",,CCCCCCCCCCCC(=O)OCC(O)[C@H]1OC[C@@H](O)[C@@H]1O,LWZFANDGMFTDAV-IOVMHBDKSA-N,-5.06253686
1-bromooctane,,CCCCCCCCBr,VMKOFRJSULQZRM-UHFFFAOYSA-N,-5.0631
dicerium(3+) ion tricarbonate,,[Ce+3].[Ce+3].[O-]C([O-])=O.[O-]C([O-])=O.[O-]C([O-])=O,GHLITDDQOMIBFS-UHFFFAOYSA-H,-5.066402363
"1,4-diethyl 2-{[4-({4-[(1,4-diethoxy-1,4-dioxobutan-2-yl)amino]-3-methylcyclohexyl}methyl)-2-methylcyclohexyl]amino}butanedioate",,CCOC(=O)CC(NC1CCC(CC2CCC(NC(CC(=O)OCC)C(=O)OCC)C(C)C2)CC1C)C(=O)OCC,YHVVJCQIMRGPPE-UHFFFAOYSA-N,-5.06653389
(2-hydroxycyclohexyl) 2-(6-methoxynaphthalen-2-yl)propanoate,,COC1=CC=C2C=C(C(C)C(=O)OC3CCCCC3O)C=CC2=C1,LQBSWHLXSMCTLQ-UHFFFAOYSA-N,-5.07
2-(benzoyloxy)ethyl benzoate,,O=C(OCCOC(=O)c1ccccc1)c2ccccc2,XFDQLDNQZFOAFK-UHFFFAOYSA-N,-5.070092502
"2,5-bis[(4-methylphenyl)amino]terephthalic acid",,Cc1ccc(Nc2cc(C(O)=O)c(Nc3ccc(C)cc3)cc2C(O)=O)cc1,FVLUGNOOEZYDNV-UHFFFAOYSA-N,-5.070513482
isopropyl (1-(4-nitro)phenylsulfonyl) cyclohepta,,CC(C)OC(=O)C1(CCCCCC1)[S](=O)(=O)c2ccc(cc2)[N+]([O-])=O,RWOBYZRHHZGFHD-UHFFFAOYSA-N,-5.0706