Name,ID,SMILES,inchi,LogS
m-methylbenzyl alcohol,,Cc1cccc(CO)c1,JJCKHVUTVOPLBV-UHFFFAOYSA-N,-0.388
"5-(benzoylamino)-4-hydroxy-3-[[1-sulpho-6-[[2-(sulphooxy)ethyl]sulphonyl]-2-naphthyl]azo]naphthalene-2,7-disulphonic acid, sodium salt",,[Na+].[Na+].[Na+].[Na+].[O-][S](=O)(=O)OCC[S](=O)(=O)c1ccc2c(ccc(N\N=C/3C(=O)c4c(NC(=O)c5ccccc5)cc(cc4C=C3[S]([O-])(=O)=O)[S]([O-])(=O)=O)c2[S]([O-])(=O)=O)c1,LWOVLHCKRPSUIB-CICQTRKRSA-J,-0.389314941
dl-alloisoleucine,,CC[C@@H](C)[C@H](N)C(O)=O,AGPKZVBTJJNPAG-UHNVWZDZSA-N,-0.3895
"2,3-dimethylbutanol",,CC(C)C(C)CO,SXSWMAUXEHKFGX-UHFFFAOYSA-N,-0.39
"potassium hydrogen benzene-1,2-dicarboxylate",,[K+].OC(=O)c1ccccc1C([O-])=O,IWZKICVEHNUQTL-UHFFFAOYSA-M,-0.391024433
"2-[[4,5-dihydro-3-methyl-5-oxo-1-[4-[[2-(sulphooxy)ethyl]sulphonyl]phenyl]-1H-pyrazol-4-yl]azo]naphthalene-1,5-disulphonic acid, potassium sodium salt",,[Na+].[K+].CC1=NN(C(O)C1N=Nc2ccc3c(cccc3[S]([O-])(=O)=O)c2[S](O)(=O)=O)c4ccc(cc4)[S](=O)(=O)CCO[S]([O-])(=O)=O,GARUHJAOVJVADA-UHFFFAOYSA-L,-0.392839827
pentasodium bis(phosphonatooxy)phosphinate,,[Na+].[Na+].[Na+].[Na+].[Na+].[O-][P]([O-])(=O)O[P]([O-])(=O)O[P]([O-])([O-])=O,HWGNBUXHKFFFIH-UHFFFAOYSA-I,-0.395423212
raffinose,,OC[C@H]1O[C@H](OC[C@H]2O[C@H](O[C@]3(CO)O[C@H](CO)[C@@H](O)[C@@H]3O)[C@H](O)[C@@H](O)[C@@H]2O)[C@H](O)[C@@H](O)[C@H]1O,MUPFEKGTMRGPLJ-ZQSKZDJDSA-N,-0.3962
"7-acetamido-4-hydroxy-3-[[4-[[2-(sulphooxy)ethyl]sulphonyl]phenyl]azo]naphthalene-2-sulphonic acid, sodium salt",,[Na+].[Na+].CC(=O)Nc1ccc2C(=O)C(=N/Nc3ccc(cc3)[S](=O)(=O)CCO[S]([O-])(=O)=O)\C(=Cc2c1)[S]([O-])(=O)=O,RVERFAMJEQKFQK-HHUIZHIGSA-L,-0.39639349
calcium bis(dihydrogenorthophosphate),,[Ca++].O[P](O)([O-])=O.O[P](O)([O-])=O,YYRMJZQKEFZXMX-UHFFFAOYSA-L,-0.396643053
2-(4-hydroxyphenyl)acetic acid,,OC(=O)Cc1ccc(O)cc1,XQXPVVBIMDBYFF-UHFFFAOYSA-N,-0.399080411
Parabanic_Acid,,O=C(NC(=O)C1=O)N1,ZFLIKDUSUDBGCD-UHFFFAOYSA-N,-0.4
2-[(2-amino-3-methylbutanoyl)amino]-3-methylbutanoic acid,,CC(C)C(N)C(=O)NC(C(=O)O)C(C)C,KRNYOVHEKOBTEF-UHFFFAOYSA-N,-0.4
3-hydroxy-5-(5-oxo-1-cyclopentenyl)pentanoic acid,,O=C(O)CC(O)CCC1=CCCC1=O,YKZYNOWDVPDSMO-UHFFFAOYSA-N,-0.4
Ethylene,,C=C,VGGSQFUCUMXWEO-UHFFFAOYSA-N,-0.4
Celiprolol,CAS56980-93-9,CCN(CC)C(=O)Nc1ccc(OCC(O)CNC(C)(C)C)c(C(C)=O)c1,JOATXPAWOHTVSZ-UHFFFAOYSA-N,-0.4
"2,2-dimethyl-1-propanol",,CC(C)(C)CO,KPSSIOMAKSHJJG-UHFFFAOYSA-N,-0.4012
hydantoin,,O=C1CNC(=O)N1,WJRBRSLFGCUECM-UHFFFAOYSA-N,-0.4016
nebularine,,OC[C@H]1O[C@H]([C@H](O)[C@@H]1O)n2cnc3cncnc23,MRWXACSTFXYYMV-FDDDBJFASA-N,-0.4018
"pyrimidine, 2-(methylthio)-",,CSc1ncccn1,FOEMIZSFFWGXHX-UHFFFAOYSA-N,-0.402
"urea, 1-methyl-1-o-tolyl-",,CN(C(N)=O)c1ccccc1C,IWYDNHDPJXFEOV-UHFFFAOYSA-N,-0.4032
5-oxo-DL-proline,,OC(=O)C1CCC(=O)N1,ODHCTXKNWHHXJC-UHFFFAOYSA-N,-0.404258917
1-butoxypropan-2-ol,,CCCCOCC(C)O,RWNUSVWFHDHRCJ-UHFFFAOYSA-N,-0.405237967
"sodium 4-{[4-(diethylamino)phenyl][4-(diethyliminio)cyclohexa-2,5-dien-1-ylidene]methyl}benzene-1,3-disulfonate",,[Na+].CCN(CC)c1ccc(cc1)[C+](c2ccc(cc2)N(CC)CC)c3ccc(cc3[S]([O-])(=O)=O)[S]([O-])(=O)=O,SJEYSFABYSGQBG-UHFFFAOYSA-M,-0.406689269
methacrylonitrile,,CC(=C)C#N,GYCMBHHDWRMZGG-UHFFFAOYSA-N,-0.406708517
"butanedioic acid, (1-methylethyl)-",,CC(C)C(CC(O)=O)C(O)=O,RKAFKUROUOLPOL-UHFFFAOYSA-N,-0.4073
8-methylpurine,,CC1=NC2=C([NH]1)C=NC=N2,UZQYFLWZKIMYKS-UHFFFAOYSA-N,-0.41
7-hydroxymethyltheophylline,,CN1C(=O)N(C)C2=C([N](CO)C=N2)C1=O,QAPJAMJGLYYNHX-UHFFFAOYSA-N,-0.41
"pentasodium 5-{[4-chloro-6-({3-[2-(sulfonatooxy)ethanesulfonyl]phenyl}amino)-1,3,5-triazin-2-yl]amino}-3-[(E)-2-(1,5-disulfonatonaphthalen-2-yl)diazen-1-yl]-4-hydroxynaphthalene-2,7-disulfonate",,[Na+].[Na+].[Na+].[Na+].[Na+].[O-][S](=O)(=O)OCC[S](=O)(=O)c1cccc(Nc2nc(Cl)nc(Nc3cc(cc4C=C(\C(=N/Nc5ccc6c(cccc6[S]([O-])(=O)=O)c5[S]([O-])(=O)=O)C(=O)c34)[S]([O-])(=O)=O)[S]([O-])(=O)=O)n2)c1,NVNQRAOQGCJYDU-QUSWNXLDSA-I,-0.410897736
"2,3-dimethyl-2-butanol",,CC(C)C(C)(C)O,IKECULIHBUCAKR-UHFFFAOYSA-N,-0.411
Methadone,CAS76-99-3,[2H]C([2H])([2H])N(C)C(C)CC(C(=O)CC)(c1ccccc1)c1ccccc1,USSIQXCVUWKGNF-HPRDVNIFSA-N,-0.41
1-hexyn-3-ol,,CCCC(O)C#C,LTFTWJYRQNTCHI-UHFFFAOYSA-N,-0.4121
3-hexyn-2-ol,,CCC#CC(C)O,IFCAMPHNVKBSTF-UHFFFAOYSA-N,-0.4121
cycloleucine,,NC1(CCCC1)C(O)=O,NILQLFBWTXNUOE-UHFFFAOYSA-N,-0.4122
2-methylpropyl (2R)-2-hydroxypropanoate,,CC(C)COC(=O)[C@@H](C)O,WBPAQKQBUKYCJS-ZCFIWIBFSA-N,-0.412857335
"trisodium 7-{2-[2-(carbamoylamino)-4-{[4-({2-[2-(ethenesulfonyl)ethoxy]ethyl}amino)-6-fluoro-1,3,5-triazin-2-yl]amino}phenyl]diazen-1-yl}naphthalene-1,3,6-trisulfonate",,[Na+].[Na+].[Na+].NC(=O)Nc1cc(Nc2nc(F)nc(NCCOCC[S](=O)(=O)C=C)n2)ccc1N=Nc3cc4c(cc(cc4[S]([O-])(=O)=O)[S]([O-])(=O)=O)cc3[S]([O-])(=O)=O,BTCMRMVIDXSNEW-UHFFFAOYSA-K,-0.414559724
ephedrine,,CN[C@@H](C)[C@H](O)c1ccccc1,KWGRBVOPPLSCSI-WPRPVWTQSA-N,-0.4147
4-cyanopyridine,,N#Cc1ccncc1,GPHQHTOMRSGBNZ-UHFFFAOYSA-N,-0.4154
phthalazine,,c1ccc2cnncc2c1,LFSXCDWNBUNEEM-UHFFFAOYSA-N,-0.4155
"disodium 2-{4-[(2E)-2-cyano-3-{4-[methyl(2-sulfonatoethyl)amino]phenyl}prop-2-enamido]phenyl}-6-methyl-1,3-benzothiazole-7-sulfonate",,[Na+].[Na+].CN(CC[S]([O-])(=O)=O)c1ccc(cc1)/C=C(C#N)/C(=O)Nc2ccc(cc2)c3sc4c(ccc(C)c4[S]([O-])(=O)=O)n3,RXTSUBROMXGEJZ-ZAWKPCBGSA-L,-0.415949942
"tetrasodium 4-amino-5-hydroxy-6-[(E)-2-{2-methoxy-5-[2-(sulfonatooxy)ethanesulfonyl]phenyl}diazen-1-yl]-3-[(E)-2-{4-[2-(sulfonatooxy)ethanesulfonyl]phenyl}diazen-1-yl]naphthalene-2,7-disulfonate",,[Na+].[Na+].[Na+].[Na+].COc1ccc(cc1N\N=C/2C(=O)c3c(N)c(N=Nc4ccc(cc4)[S](=O)(=O)CCO[S]([O-])(=O)=O)c(cc3C=C2[S]([O-])(=O)=O)[S]([O-])(=O)=O)[S](=O)(=O)CCO[S]([O-])(=O)=O,VPXBRNMQOUKIMZ-BKYDQJEUSA-J,-0.416104482
Ifosfamide,CAS3778-73-2,O=P1(NCCCl)OCCCN1CCCl,HOMGKSMUEGBAAB-UHFFFAOYSA-N,-0.42
"2,5-piperazinedione, 1,4-bis(hydroxymethyl)-",,OCN1CC(=O)N(CO)CC1=O,YJJCHWPBSSONRM-UHFFFAOYSA-N,-0.4168
"benzoic acid, 2,6-dibromo-3,4,5-trihydroxy-",,OC(=O)c1c(Br)c(O)c(O)c(O)c1Br,RZMMKKHHNDGXPD-UHFFFAOYSA-N,-0.4188
Methohexital,CAS151-83-7,C=CCC1(C(C)C#CCC)C(=O)NC(=O)N(C)C1=O,NZXKDOXHBHYTKP-UHFFFAOYSA-N,-0.42
"butanoic acid, 2-(ethylamino)-",,CCNC(CC)C(O)=O,PRXQQZUWYABUCX-UHFFFAOYSA-N,-0.4189
"carbamic acid, ethylmethyl-, ethyl ester",,CCOC(=O)N(C)CC,XLPFLCTZNRMTQB-UHFFFAOYSA-N,-0.4189
2-hexene-4-ol,,CCC(O)\C=C\C,KWUXUOPPQQMMIL-HWKANZROSA-N,-0.4198
ephedrine,,OC(c(cccc1)c1)C(NC)C,KWGRBVOPPLSCSI-UHFFFAOYSA-N,-0.42
2-butoxyethanol,,CCCCOCCO,POAOYUHQDCAZBD-UHFFFAOYSA-N,-0.42
4-(ethyl-methylamino)diazenylbenzoic acid,,CCN(C)N=NC1=CC=C(C(=O)O)C=C1,SHAJZTPMTUWBSV-UHFFFAOYSA-N,-0.42
"disodium bis[(oxoboranyl)oxy]bicyclo[5.5.1]hexaboroxane-3,5-bis(olate)",,O.O.O.O.[Na+].[Na+].[O-]B([O-])[O-].[O-]B([O-])[O-].[O-]B([O-])[O-].[O-]B([O-])[O-].[O-]B([O-])[O-].[O-]B([O-])[O-].[O-]B([O-])[O-].[O-]B([O-])[O-],RHSGYAYYVYMXIF-UHFFFAOYSA-N,-0.42018642
"urea, 1-methyl-1-p-tolyl-",,CN(C(N)=O)c1ccc(C)cc1,JPJWFNHMOPQSBQ-UHFFFAOYSA-N,-0.423
"trisodium 1-amino-4-[[3-[[4-chloro-6-[(3-sulphonatophenyl)amino]-1,3,5-triazin-2-yl]amino]-2,4,6-trimethyl-5-sulphonatophenyl]amino]-9,10-dihydro-9,10-dioxoanthracene-2-sulphonate",,[Na+].[Na+].[Na+].Cc1c(Nc2nc(Cl)nc(Nc3cccc(c3)[S]([O-])(=O)=O)n2)c(C)c(c(C)c1Nc4cc(c(N)c5C(=O)c6ccccc6C(=O)c45)[S]([O-])(=O)=O)[S]([O-])(=O)=O,ZUCXUTRTSQLRCV-UHFFFAOYSA-K,-0.424427985
"trisodium 1-amino-4-{[3-({4-chloro-6-[(2-sulfonatophenyl)amino]-1,3,5-triazin-2-yl}amino)-2,4,6-trimethyl-5-sulfonatophenyl]amino}-9,10-dioxo-9,10-dihydroanthracene-2-sulfonate",,[Na+].[Na+].[Na+].Cc1c(Nc2nc(Cl)nc(Nc3ccccc3[S]([O-])(=O)=O)n2)c(C)c(c(C)c1Nc4cc(c(N)c5C(=O)c6ccccc6C(=O)c45)[S]([O-])(=O)=O)[S]([O-])(=O)=O,GWZGQKXBZOLBKS-UHFFFAOYSA-K,-0.424427985
yttrium(3+) acetate,,[Y+3].CC([O-])=O.CC([O-])=O.CC([O-])=O,JUWHRRAPBUAYTA-UHFFFAOYSA-K,-0.424943674
aniline,,Nc1ccccc1,PAYRUJLWNCNPSJ-UHFFFAOYSA-N,-0.425016895
"d-galactose, (aminocarbonyl)hydrazone",,NC(=O)N\N=C\C(O)C(O)C(O)C(O)CO,NOUQGOYNEGWDCZ-XLUWADSXSA-N,-0.4257
"tetrasodium 7-[(E)-2-[2-(carbamoylamino)-4-{[4-chloro-6-({3-[2-(sulfonatooxy)ethanesulfonyl]phenyl}amino)-1,3,5-triazin-2-yl]amino}phenyl]diazen-1-yl]naphthalene-1,3,6-trisulfonate",,[Na+].[Na+].[Na+].[Na+].NC(=O)Nc1cc(Nc2nc(Cl)nc(Nc3cccc(c3)[S](=O)(=O)CCO[S]([O-])(=O)=O)n2)ccc1N=Nc4cc5c(cc(cc5[S]([O-])(=O)=O)[S]([O-])(=O)=O)cc4[S]([O-])(=O)=O,UIEBGVDTKLYGTN-UHFFFAOYSA-J,-0.426136485
crotononitrile,,C/C=C/C#N,NKKMVIVFRUYPLQ-NSCUHMNNSA-N,-0.4287
"1,1-diethoxyethane",,CCOC(C)OCC,DHKHKXVYLBGOIT-UHFFFAOYSA-N,-0.4291
3-iodopropionic acid,,OC(=O)CCI,KMRNTNDWADEIIX-UHFFFAOYSA-N,-0.43
2-[(2-aminoacetyl)amino]-4-methylpentanoic acid,,CC(C)CC(NC(=O)CN)C(=O)O,DKEXFJVMVGETOO-UHFFFAOYSA-N,-0.43
"[2,5-dioxo-4,4-di(phenyl)imidazolidin-1-yl]methyl dihydrogen phosphate",,OP(=O)(O)OCN1C(=O)NC(C2=CC=CC=C2)(C2=CC=CC=C2)C1=O,XWLUWCNOOVRFPX-UHFFFAOYSA-N,-0.43
4-amino-1-[5-(hydroxymethyl)oxolan-2-yl]pyrimidin-2-one,,NC1=NC(=O)N(C2CCC(CO)O2)C=C1,WREGKURFCTUGRC-UHFFFAOYSA-N,-0.43
"nicotinic acid, ethyl ester",,CCOC(=O)c1cccnc1,XBLVHTDFJBKJLG-UHFFFAOYSA-N,-0.4313
Stavudine,CAS3056-17-5,Cc1cn([C@H]2C=C[C@@H](CO)O2)c(=O)[nH]c1=O,XNKLLVCARDGLGL-JGVFFNPUSA-N,-0.43
ethyl 3-ethoxypropanoate,,CCOCCC(=O)OCC,BHXIWUJLHYHGSJ-UHFFFAOYSA-N,-0.431708518
benzyl alcohol,,OCc1ccccc1,WVDDGKGOMKODPV-UHFFFAOYSA-N,-0.4319
"pentanedioic acid, dimethyl ester",,COC(=O)CCCC(=O)OC,XTDYIOOONNVFMA-UHFFFAOYSA-N,-0.4337
phenylhydroxylamine,,ONc1ccccc1,CKRZKMFTZCFYGB-UHFFFAOYSA-N,-0.4359
sodium 4-[(2-hydroxy-1-naphthyl)diazenyl]-3-methylbenzenesulfonate,,[Na+].Cc1cc(ccc1N\N=C2\C(=O)C=Cc3ccccc23)[S]([O-])(=O)=O,SIHMAENIPOJURU-ZJSKVYKZSA-M,-0.43660043
Nalmefene Hydrochloride,CAS58895-64-0,C=C1CC[C@@]2(O)C3Cc4ccc(O)c5c4[C@@]2(CCN3CC2CC2)[C@H]1O5.Cl,GYWMRGWFQPSQLK-OFEPICNMSA-N,-0.44
"disodium 1,4-bis(4-phenylsulfonyloxybutan-2-ylimino)anthracene-9,10-diolate",,[Na+].[Na+].CC(CCO[S](=O)(=O)c1ccccc1)[N-]c2ccc([N-]C(C)CCO[S](=O)(=O)c3ccccc3)c4C(=O)c5ccccc5C(=O)c24,LTFVYMXQNXRKJK-UHFFFAOYSA-L,-0.437646111
cobalt(2+) dipropanoate,,[Co++].CCC([O-])=O.CCC([O-])=O,TZWGXFOSKIHUPW-UHFFFAOYSA-L,-0.437662317
Azacitidine,CAS320-67-2,Nc1ncn([C@@H]2O[C@H](CO)[C@@H](O)[C@H]2O)c(=O)n1,NMUSYJAQQFHJEW-KVTDHHQDSA-N,-0.44
(2R)-2-(2-chlorophenyl)-2-hydroxyacetic acid,,O[C@@H](C(O)=O)c1ccccc1Cl,RWOLDZZTBNYTMS-SSDOTTSWSA-N,-0.4390279
(3-methoxy-3-methylbutyl) acetate,,COC(C)(C)CCOC(C)=O,RYNQKSJRFHJZTK-UHFFFAOYSA-N,-0.439029198
"benzene-1,2-diamine",,Nc1ccccc1N,GEYOCULIXLDCMW-UHFFFAOYSA-N,-0.439609879
 Pyrrolidinyl sulfone,,O=S(=O)(N1CCCC1)N1CCCC1,HMSYOMRFLOKYEK-UHFFFAOYSA-N,-0.44
"carbamimidothioic acid, trimethyl-, methyl ester",,CSC(=NC)N(C)C,CQROVVJXIYLISJ-UHFFFAOYSA-N,-0.4401
"1-butanamine, n-ethyl-",,CCCCNCC,QHCCDDQKNUYGNC-UHFFFAOYSA-N,-0.4405
"disodium (5E)-5-[2-(2-methoxy-5-methyl-4-sulfonatophenyl)hydrazin-1-ylidene]-6-oxo-5,6-dihydronaphthalene-2-sulfonate",,[Na+].[Na+].COc1cc(c(C)cc1N\N=C2\C(=O)C=Cc3cc(ccc23)[S]([O-])(=O)=O)[S]([O-])(=O)=O,POXPUHKJGLHZEM-VIPPSAFOSA-L,-0.440585514
Fosfomycin Tromethamine,CAS78964-85-9,C[C@@H]1O[C@@H]1P(=O)(O)O.NC(CO)(CO)CO,QZJIMDIBFFHQDW-LMLSDSMGSA-N,-0.44
"cytidine, 2',3'-dideoxy-",,NC1=NC(=O)N(C=C1)[C@H]2CC[C@@H](CO)O2,WREGKURFCTUGRC-POYBYMJQSA-N,-0.4416
"ethanol, 2-bromo-2,2-dichloro-",,OCC(Cl)(Cl)Br,YZTOJSCFQRPGLD-UHFFFAOYSA-N,-0.4424
Tranylcypromine Sulfate,CAS13492-01-8,N[C@@H]1C[C@H]1c1ccccc1.N[C@@H]1C[C@H]1c1ccccc1.O=S(=O)(O)O,BKPRVQDIOGQWTG-FKXFVUDVSA-N,-0.44
barium dinitrate,,[Ba++].[O-][N+]([O-])=O.[O-][N+]([O-])=O,IWOUKMZUPDVPGQ-UHFFFAOYSA-N,-0.444071386
calcium cyanoazanediide,,[Ca++].NC#N,STRTXDFFNXSZQB-UHFFFAOYSA-N,-0.446096322
methomyl,,CNC(=O)O\N=C(/C)SC,UHXUZOCRWCRNSJ-QPJJXVBHSA-N,-0.4466
"4(1h)-pyrimidinone, 5-bromo-",,BrC1=CN=CNC1=O,CLJIGLPOBRSBNU-UHFFFAOYSA-N,-0.4471
"1,6-dioxaspiro[4,4]nonane, 2,7-dimethyl-",,CC1CCC2(CCC(C)O2)O1,PUKTVFNQVGOXPI-UHFFFAOYSA-N,-0.4487
3-ethoxycarbonyl-5-fluorouracil,,CCOC(=O)N1C(=O)NC=C(F)C1=O,GNAMZNCNEUATEE-UHFFFAOYSA-N,-0.45
"1h-purine, 8-(trifluoromethyl)-",,FC(F)(F)c1[nH]c2cncnc2n1,YGINUNRCDDYFKD-UHFFFAOYSA-N,-0.4505
1-ethenylazepan-2-one,,C=CN1CCCCCC1=O,JWYVGKFDLWWQJX-UHFFFAOYSA-N,-0.450786076
"2-propanone, 1-(2-piperidinyl)-",,CC(=O)CC1CCCCN1,JEIZLWNUBXHADF-UHFFFAOYSA-N,-0.4509
"hexanoic acid, 4-ethyl-5-oxo-",,CCC(CCC(O)=O)C(C)=O,LXFXKKKZRKUZPC-UHFFFAOYSA-N,-0.451
oxiran-2-ylmethyl 2-methylprop-2-enoate,,CC(=C)C(=O)OCC1CO1,VOZRXNHHFUQHIL-UHFFFAOYSA-N,-0.45378908
1-dodecylpyridin-1-ium chloride,,[Cl-].CCCCCCCCCCCC[n+]1ccccc1,GKQHIYSTBXDYNQ-UHFFFAOYSA-M,-0.453910537
"1,3-benzenedicarboxylic acid, 2-(carboxycarbonyl)-",,OC(=O)C(=O)c1c(cccc1C(O)=O)C(O)=O,MKKVMUPZRDPRHL-UHFFFAOYSA-N,-0.4541
"disodium 1-amino-9,10-dioxo-4-({3-[2-(sulfonatooxy)ethanesulfonyl]phenyl}amino)-9,10-dihydroanthracene-2-sulfonate",,[Na+].[Na+].Nc1c2C(=O)c3ccccc3C(=O)c2c(Nc4cccc(c4)[S](=O)(=O)CCO[S]([O-])(=O)=O)cc1[S]([O-])(=O)=O,KUIXZSYWBHSYCN-UHFFFAOYSA-L,-0.454535826
3-hydroxypyridine,,Oc1cccnc1,GRFNBEZIAWKNCO-UHFFFAOYSA-N,-0.4557
"pentanedioic acid, 2,4-dimethyl-",,C[C@@H](C[C@@H](C)C([O-])=O)C([O-])=O,VIWYMIDWAOZEAZ-SYDPRGILSA-L,-0.4564
trimethadione,,CN1C(=O)OC(C)(C)C1=O,IRYJRGCIQBGHIV-UHFFFAOYSA-N,-0.4568
"trisodium 5-({4-chloro-6-[(2-methylphenyl)amino]-1,3,5-triazin-2-yl}amino)-4-hydroxy-3-[(E)-2-(2-sulfonatophenyl)diazen-1-yl]naphthalene-2,7-disulfonate",,[Na+].[Na+].[Na+].Cc1ccccc1Nc2nc(Cl)nc(Nc3cc(cc4C=C(/C(=N/Nc5ccccc5[S]([O-])(=O)=O)C(=O)c34)[S]([O-])(=O)=O)[S]([O-])(=O)=O)n2,GBFBZNVXLZXZMP-GTHSLJRASA-K,-0.457240368
n-nitrosomethylvinylamine,,CN(C=C)N=O,AWZVYNHQGTZJIH-UHFFFAOYSA-N,-0.4579
butyl 2-hydroxyacetate,,CCCCOC(=O)CO,VFGRALUHHHDIQI-UHFFFAOYSA-N,-0.458338912
"trisodium 8-{[(2E)-4-chloro-6-[ethyl(phenyl)amino]-1,2-dihydro-1,3,5-triazin-2-ylidene]amino}-2-[(E)-2-(1-sulfonaphthalen-2-yl)diazen-1-yl]-3,6-disulfonatonaphthalen-1-olate",,[Na+].[Na+].[Na+].CCN(c1ccccc1)c2nc(Cl)nc(Nc3cc(cc4C=C(\C(=N/Nc5ccc6ccccc6c5[S]([O-])(=O)=O)C(=O)c34)[S]([O-])(=O)=O)[S]([O-])(=O)=O)n2,YTFISNAZHFSCHA-AWMFZBAVSA-K,-0.459235549
methyl nicotinate,,COC(=O)c1cccnc1,YNBADRVTZLEFNH-UHFFFAOYSA-N,-0.459550859
"1,2,3-thiadiazole-4-carboxylic acid, 5-methyl-",,Cc1snnc1C(O)=O,ZLJIFINJKVSIRN-UHFFFAOYSA-N,-0.4598
"6,7-dimethylpteridine",,CC1=NC2=C(N=CN=C2)N=C1C,HBHGSVQQEYTFFZ-UHFFFAOYSA-N,-0.46
ergothioneine,,C[N+](C)(C)C(CC1=CN=C(S)[NH]1)C([O-])=O,SSISHJJTAXXQAX-UHFFFAOYSA-N,-0.46
"1-methyl-3-(2,4,6-trioxo-1,3-diazinan-5-yl)thiourea",,CNC(=S)NC1C(=O)NC(=O)NC1=O,XRHHRWNNXLLWNB-UHFFFAOYSA-N,-0.46
1-phenylethanamine,,C[C@H](N)c1ccccc1,RQEUFEKYXDPUSK-ZETCQYMHSA-N,-0.460192409
disodium 6-amino-3-sulfo-2-[(E)-2-{4-[(E)-2-(4-sulfonatophenyl)diazen-1-yl]phenyl}diazen-1-yl]naphthalen-1-olate,,[Na+].[Na+].Nc1ccc2c([O-])c(N=Nc3ccc(cc3)N=Nc4ccc(cc4)[S]([O-])(=O)=O)c(cc2c1)[S](O)(=O)=O,DNDMQQPFVIIALP-UHFFFAOYSA-L,-0.460354084
3-methyl-4-oxobut-2-en-1-yl acetate,,CC(=O)OC\C=C(/C)C=O,LPDDKAJRWGPGSI-ZZXKWVIFSA-N,-0.460793982
N-propylpropan-1-amine,,CCCNCCC,WEHWNAOGRSTTBQ-UHFFFAOYSA-N,-0.461082427
"l-alanine, n-(chloroacetyl)-, ethyl ester",,CCOC(=O)[C@H](C)NC(=O)CCl,VCQDLEOMZPPOFE-YFKPBYRVSA-N,-0.4628
"hexanal, 5-hydroxy-, (r)-",,C[C@@H](O)CCCC=O,YRMUTQRWVGDUBW-ZCFIWIBFSA-N,-0.463
"tetrasodium 5-{[(2E)-6-[bis(2-hydroxyethyl)amino]-4-[(4-sulfonatophenyl)amino]-1,2-dihydro-1,3,5-triazin-2-ylidene]amino}-2-[(E)-2-(4-{[(2E)-6-[bis(2-hydroxyethyl)amino]-4-[(4-sulfonatophenyl)amino]-1,2-dihydro-1,3,5-triazin-2-ylidene]amino}-2-sulfonatophenyl)ethenyl]benzene-1-sulfonate",,[Na+].[Na+].[Na+].[Na+].OCCN(CCO)c1nc(Nc2ccc(cc2)[S]([O-])(=O)=O)nc(Nc3ccc(\C=C\c4ccc(Nc5nc(Nc6ccc(cc6)[S]([O-])(=O)=O)nc(n5)N(CCO)CCO)c(c4)[S]([O-])(=O)=O)cc3[S]([O-])(=O)=O)n1,UGOUPNUFULXHAK-MBCFVHIPSA-J,-0.46428681
2-dibenzofuransulfonic acid,,[O-][S](=O)(=O)c1ccc2oc3ccccc3c2c1,JANFYPHFIPGYTQ-UHFFFAOYSA-M,-0.4655
N-methylhydrazinecarbothioamide,,CNC(=S)NN,PTVZQOAHCSKAAS-UHFFFAOYSA-N,-0.465572855
"pteridine, 4-methyl-",,Cc1ncnc2nccnc12,WESDBLALURHRDL-UHFFFAOYSA-N,-0.4658
"1,4-benzenediamine",,Nc1ccc(N)cc1,CBCKQZAAMUWICA-UHFFFAOYSA-N,-0.4658
"2,3,3-trichloro-2-propenoic acid",,[O-]C(=O)C(Cl)=C(Cl)Cl,WMUBNWIGNSIRDH-UHFFFAOYSA-M,-0.4659
2-methylbutan-1-ol,,CCC(C)CO,QPRQEDXDYOZYLA-UHFFFAOYSA-N,-0.468101062
Fusel oil,,CC(C)CCO,PHTQWCKDNZKARW-UHFFFAOYSA-N,-0.468101062
"sodium 1,4-bis[(8-methylnonyl)oxy]-1,4-dioxobutane-2-sulfonate",,[Na+].CC(C)CCCCCCCOC(=O)CC(C(=O)OCCCCCCCC(C)C)[S]([O-])(=O)=O,XXIOSJPZBMCGGL-UHFFFAOYSA-M,-0.469106118
dibenzofuran-2-sulfonic acid,,O=S(=O)(O)C1=CC2=C(C=C1)OC1=C2C=CC=C1,JANFYPHFIPGYTQ-UHFFFAOYSA-N,-0.47
silver lactate,,[Ag+].CC([O-])C(O)=O,CUPCAVOUAWGFEI-UHFFFAOYSA-N,-0.4702
hexasodium; dioxido-dioxotungsten; trioxotungsten,,[Na+].[Na+].[Na+].[Na+].[Na+].[Na+].[O-][W]([O-])(=O)=O.[O-][W]([O-])(=O)=O.[O-][W]([O-])(=O)=O.O=[W](=O)=O.O=[W](=O)=O.O=[W](=O)=O.O=[W](=O)=O.O=[W](=O)=O.O=[W](=O)=O.O=[W](=O)=O.O=[W](=O)=O.O=[W](=O)=O,AZCSOJKJFMWYCX-UHFFFAOYSA-N,-0.472461116
diammonium oxalate,,[NH4+].[NH4+].[O-]C(=O)C([O-])=O,VBIXEXWLHSRNKB-UHFFFAOYSA-N,-0.472581501
2-anilinoethanol,,OCCNc1ccccc1,MWGATWIBSKHFMR-UHFFFAOYSA-N,-0.4745
trisodium bis[2-hydroxy-5-nitro-3-[[2-oxo-1-[(phenylamino)carbonyl]propyl]azo]benzenesulphonato(3-)]cobaltate(3-),,[Na+].[Na+].[Na+].[Co+3].CC(=O)\C(=N/Nc1cc(cc(c1[O-])[S]([O-])(=O)=O)[N+]([O-])=O)C(=O)[N-]c2ccccc2.CC(=O)\C(=N/Nc3cc(cc(c3[O-])[S]([O-])(=O)=O)[N+]([O-])=O)C(=O)[N-]c4ccccc4,YZBZIKJBLDYACB-UHFFFAOYSA-H,-0.474704027
zinc formate,,[Zn++].[O-]C=O.[O-]C=O,XOBMCBQSUCOAOC-UHFFFAOYSA-L,-0.4755
RHENIUM,,[Re],WUAPFZMCVAUBPE-UHFFFAOYSA-N,-0.475507957
phenylethanolamine,,NCC(O)c1ccccc1,ULSIYEODSMZIPX-UHFFFAOYSA-N,-0.4764
calcium dipropanoate,,[Ca++].CCC([O-])=O.CCC([O-])=O,BCZXFFBUYPCTSJ-UHFFFAOYSA-L,-0.476934722
"butan-2-one O,O',O''-(methylsilylidyne)trioxime",,CC/C(C)=N/O[Si@](C)(O\N=C(C)\CC)O\N=C(C)\CC,OGZPYBBKQGPQNU-DABLZPOSSA-N,-0.479234017
2-furoic acid,,OC(=O)c1occc1,SMNDYUVBFMFKNZ-UHFFFAOYSA-N,-0.4802
Amantadine,CAS768-94-5,N[C@]12C[C@H]3C[C@H](C[C@H](C3)C1)C2,DKNWSYNQZKUICI-CHIWXEEVSA-N,-0.48
(1R)-1-phenylethan-1-amine,,CC(N)c1ccccc1,RQEUFEKYXDPUSK-UHFFFAOYSA-N,-0.481381708
"alanine, n-(2-bromo-3-methylbutyryl)-, dl-",,CC(C)C(Br)C(=O)NC(C)C(O)=O,AXXGBXUAFMEEMQ-UHFFFAOYSA-N,-0.4825
"tetrasodium 2,2'-ethene-1,2-diylbis[5-({4-morpholin-4-yl-6-[(4-sulfonatophenyl)amino]-1,3,5-triazin-2-yl}amino)benzenesulfonate]",,[Na].[Na].[Na].[Na].CNc1ccc(/C=C/c2ccc(Nc3nc(Nc4ccc(cc4)[S]([O-])(=O)=O)nc(n3)N5CCOCC5)cc2[S]([O-])(=O)=O)c(c1)[S]([O-])(=O)=O.Cc6nc(Nc7ccc(cc7)[S]([O-])(=O)=O)nc(n6)N8CCOCC8,XQESDAXKAMZHMR-YWURNZKTSA-J,-0.48433581
1-hexadecylpyridinium chloride,,[Cl-].CCCCCCCCCCCCCCCC[n+]1ccccc1,YMKDRGPMQRFJGP-UHFFFAOYSA-M,-0.486149552
"glutaric acid, 3-hydroxy-3-(phenylcarbamoyl)-",,OC(=O)CC(O)(CC(O)=O)C(=O)Nc1ccccc1,XIQLELWZTXRHIC-UHFFFAOYSA-N,-0.4874
"2-amino-4,6-dimethylpyrimidine",,Cc1cc(C)nc(N)n1,IDQNBVFPZMCDDN-UHFFFAOYSA-N,-0.4884
"benzenesulfonic acid, 3-amino-2,4,6-tribromo-",,Nc1c(Br)cc(Br)c(c1Br)[S](O)(=O)=O,UDUMKWWIWPPSHW-UHFFFAOYSA-N,-0.4888
"propanal, 2,3-dihydroxy-, ()-",,OCC(O)C=O,MNQZXJOMYWMBOU-UHFFFAOYSA-N,-0.489
hexamethyleneimine;  homopiperidine;  azacycloheptane; azepane,,C1CCCNCC1,ZSIQJIWKELUFRJ-UHFFFAOYSA-N,-0.49
propyl_formate,,O=COCCC,KFNNIILCVOLYIR-UHFFFAOYSA-N,-0.49
1-phenylsulfanylethanesulfonic acid,,CC(SC1=CC=CC=C1)S(=O)(=O)O,QUVWXZDNCAXHIL-UHFFFAOYSA-N,-0.49
"butanal, 3-hydroxy-2-methyl-",,CC(O)C(C)C=O,ZURZPPULRFXVLF-UHFFFAOYSA-N,-0.4906
valeric acid,,CCCCC(O)=O,NQPDZGIKBAWPEJ-UHFFFAOYSA-N,-0.490652149
"butanedioic acid, 2,2'-thiobis-",,OC(=O)CC(SC(CC(O)=O)C(O)=O)C(O)=O,SASYRHXVHLPMQD-UHFFFAOYSA-N,-0.4908
p-methoxyphenol,,COc1ccc(O)cc1,NWVVVBRKAWDGAB-UHFFFAOYSA-N,-0.4919
Granisetron,CAS109889-09-0,[2H]C([2H])([2H])n1nc(C(=O)N[C@@H]2C[C@@H]3CCC[C@H](C2)N3C)c2ccccc21,MFWNKCLOYSRHCJ-JQHPXDLNSA-N,-0.49
"chromium(3+) ion pentasodium bis(8-[(4-amino-6-chloro-1,3,5-triazin-2-yl)amino]-2-[(E)-2-(5-nitro-2-oxidophenyl)diazen-1-yl]-3,6-disulfonatonaphthalen-1-olate)",,[Na+].[Na+].[Na+].[Na+].[Na+].[Cr+3].Nc1nc(Cl)nc(Nc2cc(cc3cc(c(N=Nc4cc(ccc4[O-])[N+]([O-])=O)c([O-])c23)[S]([O-])(=O)=O)[S]([O-])(=O)=O)n1.Nc5nc(Cl)nc(Nc6cc(cc7cc(c(N=Nc8cc(ccc8[O-])[N+]([O-])=O)c([O-])c67)[S]([O-])(=O)=O)[S]([O-])(=O)=O)n5,AICVXAYCWMYBPS-UHFFFAOYSA-F,-0.494975175
Diethylcarbamazine Citrate,CAS1642-54-2,CCN(CC)C(=O)N1CCN(C)CC1.O=C(O)CC(O)(CC(=O)O)C(=O)O,PGNKBEARDDELNB-UHFFFAOYSA-N,-0.5