Name,ID,SMILES,inchi,LogS
"entacapone analog (2 b); (e)-2-cyano-n,n-diethyl-3-(3-butylaminocarbonyloxy-4-hydroxy-5-nitrophenyl)propenamide",,CCCCNC(=O)OC1=C(O)C(=CC(=C1)\C=C(C#N)/C(=O)N(CC)CC)[N+]([O-])=O,LAYLZIREKXYMDV-ZROIWOOFSA-N,-2.32
"5-(2-carboxybenzenesulfonamido)-1,3,4-thiadiazole-2-sulfonamide",,N[S](=O)(=O)C1=NN=C(N[S](=O)(=O)C2=C(C=CC=C2)C(O)=O)S1,ZRVCCBYKHVNUIP-UHFFFAOYSA-N,-2.32
benzocaine,,O=C(OCC)c(ccc(N)c1)c1,BLFLLBZGZJTVJG-UHFFFAOYSA-N,-2.32
"5,5-diethyl-2-sulfanylidene-1,3-diazinane-4,6-dione",,CCC1(CC)C(=O)NC(=S)NC1=O,QGVNJRROSLYGKF-UHFFFAOYSA-N,-2.32
"benzaldehyde, 2,5-dimethoxy-",,COc1ccc(OC)c(C=O)c1,AFUKNJHPZAVHGQ-UHFFFAOYSA-N,-2.3202
borneol,,CC1(C)C2CCC1(C)C(O)C2,DTGKSKDOIYIVQL-UHFFFAOYSA-N,-2.3202
"(2E)-3,7-dimethylocta-2,6-dien-1-ol",,CC(C)=CCC\C(C)=C/CO,GLZPCOQZEFWAFX-YFHOEESVSA-N,-2.320601166
iodamide,,CC(=O)NCc1c(I)c(NC(C)=O)c(I)c(C(O)=O)c1I,VVDGWALACJEJKG-UHFFFAOYSA-N,-2.3208
sulfaphenazole,,Nc1ccc(cc1)[S](=O)(=O)Nc2ccnn2c3ccccc3,QWCJHSGMANYXCW-UHFFFAOYSA-N,-2.3213
2-nitrotoluene,,Cc1ccccc1[N+]([O-])=O,PLAZTCDQAHEYBI-UHFFFAOYSA-N,-2.3243
Milrinone,CAS78415-72-2,Cc1[nH]c(=O)c(C#N)cc1-c1ccncc1,PZRHRDRVRGEVNW-UHFFFAOYSA-N,-2.32
"succinic acid, 2-ethyl-3-phenyl-",,CCC(C(C(O)=O)c1ccccc1)C(O)=O,AAQWYJPJRWOQEV-UHFFFAOYSA-N,-2.3256
Trimethoprim,CAS738-70-5,COc1cc(Cc2cnc(N)nc2N)cc(OC)c1OC,IEDVJHCEMCRBQM-UHFFFAOYSA-N,-2.33
"benzoic acid, 2-[4,5-dihydro-4-methyl-4-(1-methy",,COC(=O)c1cc(C)ccc1C2=NC(C)(C(C)C)C(=O)N2,TYIHVCIQMMTVHE-UHFFFAOYSA-N,-2.3262
"dl-alanine, n-(2-chlorophenyl)-",,CC(Nc1ccccc1Cl)C(O)=O,AWRNWLYWQPIEDM-UHFFFAOYSA-N,-2.3271
"1-phenyl-2,5-dihydro-1H-pyrrole-2,5-dione",,O=C1C=CC(=O)N1c2ccccc2,HIDBROSJWZYGSZ-UHFFFAOYSA-N,-2.327317556
2-methylprop-1-ene,,CC(C)=C,VQTUBCCKSQIDNK-UHFFFAOYSA-N,-2.32906904
prostaglandin f2alpha;  dinoprost,,CCCCCC(O)/C=C/C1C(O)CC(O)C1C\C=C\CCCC(O)=O,PXGPLTODNUVGFL-RTYMFESYSA-N,-2.33
lomefloxacin,,CCN1C=C(C(O)=O)C(=O)C2=C1C(=C(N3CCNC(C)C3)C(=C2)F)F,ZEKZLJVOYLTDKK-UHFFFAOYSA-N,-2.33
4-Phenylsemicarbazide,,c1ccccc1NC(=O)NN,MOCKWYUCPREFCZ-UHFFFAOYSA-N,-2.33
3-(3-hydroxyphenyl)sulfonylphenol,,O=S(=O)(C1=CC(O)=CC=C1)C1=CC(O)=CC=C1,OQYYLPLRBBDFLA-UHFFFAOYSA-N,-2.33
2-[(2-aminoacetyl)amino]-N-[4-chloro-2-(2-chlorobenzoyl)phenyl]-N-methylacetamide,,CN(C(=O)CNC(=O)CN)C1=C(C(=O)C2=C(Cl)C=CC=C2)C=C(Cl)C=C1,RCPMGOCZIHMTRD-UHFFFAOYSA-N,-2.33
"2-[2-(furan-2-yl)benzimidazol-1-yl]-6-(hydroxymethyl)oxane-3,4,5-triol",,OCC1OC(N2C(C3=CC=CO3)=NC3=C2C=CC=C3)C(O)C(O)C1O,ORVSZWPGYPLKQP-UHFFFAOYSA-N,-2.33
(3-nitrooxycyclohexyl) nitrate,,C1CC(CC(C1)O[N+](=O)[O-])O[N+](=O)[O-],VJRKXIWXOWSLKQ-UHFFFAOYSA-N,-2.33
Lomefloxacin,CAS98079-51-7,CCn1cc(C(=O)O)c(=O)c2cc(F)c(N3CCNC(C)C3)c(F)c21.Cl,KXEBLAPZMOQCKO-UHFFFAOYSA-N,-2.33
"2,3-dichlorobenzoic acid",,OC(=O)c1cccc(Cl)c1Cl,QAOJBHRZQQDFHA-UHFFFAOYSA-N,-2.331672919
ethoxybenzene,,CCOc1ccccc1,DLRJIFUOBPOJNS-UHFFFAOYSA-N,-2.331841643
"1,4-dichloro-2-butene(cis)",,ClC\C=C/CCl,FQDIANVAWVHZIR-UPHRSURJSA-N,-2.3333
methylene iodide,,ICI,NZZFYRREKKOMAT-UHFFFAOYSA-N,-2.3345
"5-amino-2,3-dihydro-1H-1,3-benzodiazol-2-one",,Nc1ccc2NC(=O)Nc2c1,BCXSVFBDMPSKPT-UHFFFAOYSA-N,-2.334782902
"benzenepropanoic acid, .alpha.-oxo-.beta.-phenyl",,OC(=O)C(=O)C(c1ccccc1)c2ccccc2,VDIDZYZFFJPJCJ-UHFFFAOYSA-N,-2.3354
Secobarbital (Quinalbarbitone),PubChemCID5193,CCCC(C)C1(C(=O)NC(=O)NC1=O)CC=C,KQPKPCNLIDLUMF-UHFFFAOYSA-N,-2.34
Isosorbide Dinitrate,CAS87-33-2,O=[N+]([O-])O[C@H]1CO[C@H]2[C@@H]1OC[C@H]2O[N+](=O)[O-],MOYKHGMNXAOIAT-JGWLITMVSA-N,-2.34
chlorthiamid,,NC(=S)c1c(Cl)cccc1Cl,KGKGSIUWJCAFPX-UHFFFAOYSA-N,-2.3363
ethyl 2-methylbutanoate,,CCOC(=O)C(C)CC,HCRBXQFHJMCTLF-UHFFFAOYSA-N,-2.336416369
alpha-terpineol,,CC1=CC[C@@H](CC1)C(C)(C)O,WUOACPNHFRMFPN-VIFPVBQESA-N,-2.337
2-ethyl-2-phenylgluterimide,,CCC1(CCC(=O)NC1=O)c2ccccc2,JMBQKKAJIKAWKF-UHFFFAOYSA-N,-2.3374
4-methyl-4-phenylpentan-2-one,,CC(=O)CC(C)(C)c1ccccc1,PFDVPCSDZXZDMF-UHFFFAOYSA-N,-2.337666283
Metocurine Iodide,CAS7601-55-0,COc1ccc2cc1Oc1cc3c(cc1OC)CC[N+](C)(C)[C@H]3Cc1ccc(cc1)Oc1c(OC)c(OC)cc3c1[C@@H](C2)[N+](C)(C)CC3.[I-].[I-],DIGFQJFCDPKEPF-OIUSMDOTSA-L,-2.34
1-(ethenyloxy)butane,,CCCCOC=C,UZKWTJUDCOPSNM-UHFFFAOYSA-N,-2.33794082
thionazin,,CCO[P](=S)(OCC)Oc1cnccn1,IRVDMKJLOCGUBJ-UHFFFAOYSA-N,-2.338
tetranitromethane,,[O-][N+](=O)C([N+]([O-])=O)([N+]([O-])=O)[N+]([O-])=O,NYTOUQBROMCLBJ-UHFFFAOYSA-N,-2.3381
clomazone,,CC1(C)CON(Cc2ccccc2Cl)C1=O,KIEDNEWSYUYDSN-UHFFFAOYSA-N,-2.3383
Cadralazine,CAS64241-34-5,CCOC(=O)NNc1ccc(N(CC)CC(C)O)nn1,QLTVVOATEHFXLT-UHFFFAOYSA-N,-2.34
1-methoxy-4-methylbenzene,,COc1ccc(C)cc1,CHLICZRVGGXEOD-UHFFFAOYSA-N,-2.339542101
methyl  4-methoxybenzoate,,COC(=O)C1=CC=C(OC)C=C1,DDIZAANNODHTRB-UHFFFAOYSA-N,-2.34
6-aminopteridine,,NC1=NC2=C(N=CN=C2)N=C1,YJYIDNNTUMEKSG-UHFFFAOYSA-N,-2.34
1-amino-3-naphthalenesulfonic  acid,,NC1=CC(=CC2=C1C=CC=C2)[S](O)(=O)=O,HXXMONHYPKNZHE-UHFFFAOYSA-N,-2.34
Formetanate,,CNC(=O)Oc1cccc(N=CN(C)C)c1,RMFNNCGOSPBBAD-UHFFFAOYSA-N,-2.34
"7-Chloro-2',4'-dihydroxy-4,6-dimethoxy-6'-methyl-3H-spiro[1-benzofuran-2,1'-cyclohexan]-3-one",,COC1=CC(OC)=C(Cl)C2=C1C(=O)C1(O2)C(C)CC(O)CC1O,OOMRSSASWJQHLA-UHFFFAOYSA-N,-2.34
Ivermectin,CAS70288-86-7,CC[C@H](C)[C@H]1O[C@]2(CC[C@@H]1C)C[C@@H]1C[C@@H](C/C=C(\C)[C@@H](O[C@H]3C[C@H](OC)[C@@H](O[C@H]4C[C@H](OC)[C@@H](O)[C@H](C)O4)[C@H](C)O3)[C@@H](C)/C=C/C=C3\CO[C@@H]4[C@H](O)C(C)=C[C@@H](C(=O)O1)[C@]34O)O2,AZSNMRSAGSSBNP-XPNPUAGNSA-N,-2.34
1-phenylpropan-1-ol,,CCC(O)c1ccccc1,DYUQAZSOFZSPHD-UHFFFAOYSA-N,-2.340367591
barium(+2) cation; dioxidoboron,,[Ba++].[O-][B][O-],MLPBXDBEWJPBBI-UHFFFAOYSA-N,-2.340733519
"benzoic acid, 2-(2-hydroxybenzoyl)-",,OC(=O)c1ccccc1C(=O)c2ccccc2O,HNRPIUDTZLIYEC-UHFFFAOYSA-N,-2.3428
benzyl propanoate,,CCC(=O)OCc1ccccc1,VHOMAPWVLKRQAZ-UHFFFAOYSA-N,-2.344979827
2-amino-5-chloro-4-methylbenzene-1-sulfonic acid,,Cc1cc(N)c(cc1Cl)[S](O)(=O)=O,VYZCFAPUHSSYCC-UHFFFAOYSA-N,-2.345697125
m-chlorofluorobenzene,,Fc1cccc(Cl)c1,VZHJIJZEOCBKRA-UHFFFAOYSA-N,-2.3457
"phthalic acid, 3-nitro-, 2-propyl ester",,CC(C)OC(=O)c1cccc(c1C([O-])=O)[N+]([O-])=O,UWMQVYAFMSNSPZ-UHFFFAOYSA-M,-2.3466
2-methyl-4-phenylpentan-1-ol,,CC(CO)CC(C)c1ccccc1,SXGYZCMGVZKIPJ-UHFFFAOYSA-N,-2.346916077
"2,6-diethylaniline",,CCc1cccc(CC)c1N,FOYHNROGBXVLLX-UHFFFAOYSA-N,-2.3478
Cyclopentyl-5-spirobarbituric acid,,O=C2NC(=O)C1(CCCC1)C(=O)N2,HYPRUQJUBWRVEM-UHFFFAOYSA-N,-2.349
quinolin-8-ol,,Oc1cccc2cccnc12,MCJGNVYPOGVAJF-UHFFFAOYSA-N,-2.349605255
pelrinone,,CC1=NC(=O)C(=C(NCC2=CN=CC=C2)N1)C#N,NZXHFDXOCVIYLO-UHFFFAOYSA-N,-2.35
1-amino-5-naphthalenesulfonic  acid,,NC1=CC=CC2=C1C=CC=C2[S](O)(=O)=O,DQNAQOYOSRJXFZ-UHFFFAOYSA-N,-2.35
diethyl_phthalate,,O=C(OCC)c(c(ccc1)C(=O)OCC)c1,FLKPEMZONWLCSK-UHFFFAOYSA-N,-2.35
phenylmethyl N-[2-[(2-amino-2-oxoethyl)amino]-2-oxoethyl]carbamate,,NC(=O)CNC(=O)CNC(=O)OCC1=CC=CC=C1,DAJXGDMBDLXAAP-UHFFFAOYSA-N,-2.35
1-diethylaminopropan-2-yl 4-aminobenzoate,,CCN(CC)CC(C)OC(=O)C1=CC=C(N)C=C1,ZUNAJHZCXSUXGT-UHFFFAOYSA-N,-2.35
"N-[4-(4-aminophenyl)sulfonylphenyl]ethane-1,2-diamine",,NCCNC1=CC=C(S(=O)(=O)C2=CC=C(N)C=C2)C=C1,MDPYJIRMYGKJHU-UHFFFAOYSA-N,-2.35
6-O-(Octylcarbamoyl)hexopyranose,,CCCCCCCCNC(=O)OCC1OC(O)C(O)C(O)C1O,YJWKUPNGVMEPLO-UHFFFAOYSA-N,-2.35
"1,2-Cyclohexanediol dinitrate",,C1CCC(C(C1)O[N+](=O)O)O[N+](=O)O,VZTBIJKURDTZBE-UHFFFAOYSA-N,-2.35
Ethyl hexanoate,,CCCCCC(=O)OCC,SHZIWNPUGXLXDT-UHFFFAOYSA-N,-2.35
ethynyl benzene,,C#Cc1ccccc1,UEXCJVNBTNXOEH-UHFFFAOYSA-N,-2.3502
"2,2,6,6-tetramethyl-N-{6-[(2,2,6,6-tetramethylpiperidin-4-yl)amino]hexyl}piperidin-4-amine",,CC1(C)CC(CC(C)(C)N1)NCCCCCCNC2CC(C)(C)NC(C)(C)C2,UKJARPDLRWBRAX-UHFFFAOYSA-N,-2.350745656
"(2E)-3,7-dimethylocta-2,6-dien-1-ol",,CC(C)=CCC\C(C)=C\CO,GLZPCOQZEFWAFX-JXMROGBWSA-N,-2.351909504
1-ethynylcyclohexyl acetate,,CC(=O)OC1(CCCCC1)C#C,YASSLXHVJQGNOK-UHFFFAOYSA-N,-2.352215179
"benzamide, 2-methyl-3,5-dinitro-",,Cc1c(cc(cc1[N+]([O-])=O)[N+]([O-])=O)C(N)=O,ZEFNOZRLAWVAQF-UHFFFAOYSA-N,-2.3525
"acetic acid, (3,5-dimethylphenoxy)-",,Cc1cc(C)cc(OCC(O)=O)c1,NIPZZANLNKBKIS-UHFFFAOYSA-N,-2.3527
"butane, 2,3-dichloro-, (r*,r*)-(.+-.)-",,C[C@@H](Cl)[C@@H](C)Cl,RMISVOPUIFJTEO-QWWZWVQMSA-N,-2.3541
"2,3-dichlorobutane",,CC(Cl)C(C)Cl,RMISVOPUIFJTEO-UHFFFAOYSA-N,-2.3541
"3,5,5-trimethylhexanoic acid",,CC(CC(O)=O)CC(C)(C)C,OILUAKBAMVLXGF-UHFFFAOYSA-N,-2.354220979
"1,1-diethoxy-3,7-dimethylocta-2,6-diene",,CCOC(OCC)\C=C(C)\CCC=C(C)C,NTXGFKWLJFHGGJ-ACCUITESSA-N,-2.354799685
"N-(4-amino-3-methoxy-9,10-dioxo-9,10-dihydroanthracen-1-yl)benzenesulfonamide",,COc1cc(N[S](=O)(=O)c2ccccc2)c3C(=O)c4ccccc4C(=O)c3c1N,ZUWHJJGOYZUNDW-UHFFFAOYSA-N,-2.355850446
"2,4,6-trimethylbenzoic acid",,Cc1cc(C)c(c(C)c1)C(O)=O,FFFIRKXTFQCCKJ-UHFFFAOYSA-N,-2.3566
2-methyl-1-phenylpropan-1-one,,CC(C)C(=O)c1ccccc1,BSMGLVDZZMBWQB-UHFFFAOYSA-N,-2.35661526
4-(4-hydroxybenzenesulfonyl)phenol,,Oc1ccc(cc1)[S](=O)(=O)c2ccc(O)cc2,VPWNQTHUCYMVMZ-UHFFFAOYSA-N,-2.357024785
aminocarb,,CNC(=O)Oc1ccc(N(C)C)c(C)c1,IMIDOCRTMDIQIJ-UHFFFAOYSA-N,-2.3572
2-bromo-2-methylpropane,,CC(C)(C)Br,RKSOPLXZQNSWAS-UHFFFAOYSA-N,-2.3586
octanal,,CCCCCCCC=O,NUJGJRNETVAIRJ-UHFFFAOYSA-N,-2.3598
1-methyl-4-sulfapyrimidin-2-one,,CN1C=CC(=NC1=O)N[S](=O)(=O)C2=CC=C(N)C=C2,QOPHKHWJLOYIDO-UHFFFAOYSA-N,-2.36
1-hexyne,,CCCCC#C,CGHIBGNXEGJPQZ-UHFFFAOYSA-N,-2.36
"5-ethenyl-5-pentan-2-yl-1,3-diazinane-2,4,6-trione",,C=CC1(C(C)CCC)C(=O)NC(=O)NC1=O,KGKJZEKQJQQOTD-UHFFFAOYSA-N,-2.36
butyl butanoate,,CCCCOC(=O)CCC,XUPYJHCZDLZNFP-UHFFFAOYSA-N,-2.361047779
dimethenamid,,COCC(C)N(C(=O)CCl)c1c(C)scc1C,JLYFCTQDENRSOL-UHFFFAOYSA-N,-2.3614
"3,5-dichlorophenoxyacetic acid",,OC(=O)COc1cc(Cl)cc(Cl)c1,LXWGIMHMQOCPCR-UHFFFAOYSA-N,-2.3617
zinc(2+) ion bis(2-methylprop-2-enoate),,[Zn++].CC(=C)C([O-])=O,IQODPIFSDKREOZ-UHFFFAOYSA-M,-2.363208098
Nystatin,CAS1400-61-9,CC1/C=C/C=C/CC/C=C/C=C/C=C/C=C/C(O[C@@H]2O[C@H](C)[C@@H](O)[C@H](N)[C@@H]2O)CC(O)C(C(=O)O)C(O)CC(=O)CC(O)C(O)CCC(O)CC(O)CC(O)CC(=O)OC(C)C(C)C1O,ZDFDJJJGIRGMBE-YMRVYQTRSA-N,-2.36
2-methoxy-4-[(1E)-prop-1-en-1-yl]phenol,,COc1cc(\C=C\C)ccc1O,BJIOGJUNALELMI-ONEGZZNKSA-N,-2.364737497
"5-methyl-2-(4-methylphenyl)-2,3-dihydro-1H-pyrazol-3-one",,Cc1ccc(cc1)N2N=C(C)CC2=O,IOQOLGUXWSBWHR-UHFFFAOYSA-N,-2.365667988
mebutamate,,CCC(C)C(C)(COC(N)=O)COC(N)=O,LEROTMJVBFSIMP-UHFFFAOYSA-N,-2.366
isopropyl t-butyl ether,,CC(C)OC(C)(C)C,HNFSPSWQNZVCTB-UHFFFAOYSA-N,-2.3662
"ethanamine, 2,2'-thiobis[n,n-diethyl-",,CCN(CC)CCSCCN(CC)CC,LYFNBXZVKYDWNX-UHFFFAOYSA-N,-2.3663
di-2-chloroethyl sulfide,,ClCCSCCCl,QKSKPIVNLNLAAV-UHFFFAOYSA-N,-2.3666
sodium heptadecyl sulfate,,[Na+].CCCCCCCCCCCCCCCCCO[S]([O-])(=O)=O,HHURSJAUVYNJBT-UHFFFAOYSA-M,-2.366992667
1-<hydroxyimino-(seqtrans)>-1-phenyl-acetone,,CC(=O)C(=N\O)/c1ccccc1,YQHWURFNAULYNW-MDZDMXLPSA-N,-2.3676
tropacocaine,,CN1C2CCC1CC(C2)OC(=O)c3ccccc3,XQJMXPAEFMWDOZ-UHFFFAOYSA-N,-2.369
diethyl 3-methyl-5-pyrazolyl phosphate,,CCO[P](=O)(OCC)Oc1cc(C)[nH]n1,CDCTYRNLXFEDHC-UHFFFAOYSA-N,-2.3696
5-bromouracil,,BrC1=CNC(=O)NC1=O,LQLQRFGHAALLLE-UHFFFAOYSA-N,-2.3698
tirpate,,CNC(=O)O/N=C/C1(C)SCC(C)S1,GHFMMRFMDHDOBP-BJMVGYQFSA-N,-2.3698
"n4-formyl-n1,n1,n4-trimethylsulfanilamide; n-[(4-dimethylsulfamoyl)phenyl]-n-methylformamide",,CN(C)[S](=O)(=O)C1=CC=C(C=C1)N(C)C=O,XSDPZPWLUUGYHH-UHFFFAOYSA-N,-2.37
7-(pentanoyloxymethyl)theophylline,,CCCCC(=O)OC[N]1C=NC2=C1C(=O)N(C)C(=O)N2C,YWTLHUJMKYJQNI-UHFFFAOYSA-N,-2.37
boc-phe-is-sta-leu-nh(ch2)3n(ch2ch2oh)2 (analog 22),,CC(C)CC(NC(=O)C(CC1=C[NH]C=N1)NC(=O)C(CC2=CC=CC=C2)NC(=O)OC(C)(C)C)C(O)CC(=O)NC(CC(C)C)C(=O)NCCCN(CCO)CCO,DZBPOCSWCYBLRC-UHFFFAOYSA-N,-2.37
4-(methyl-pentylamino)diazenylbenzoic acid,,CCCCCN(C)N=NC1=CC=C(C(=O)O)C=C1,TUJYUSMRVZZAIX-UHFFFAOYSA-N,-2.37
"8-hydroxy-6a,7,8,9-tetrahydro-5H-pyrrolo[2,1-c][1,4]benzodiazepine-6,11-dione",,O=C1NC2=C(C=CC=C2)C(=O)N2CC(O)CC12,QMZBNOQLELVDQU-UHFFFAOYSA-N,-2.37
N-(2-hydroxyoxolan-3-yl)-4-methyl-2-(phenylcarbamothioylamino)pentanamide,,CC(C)CC(NC(=S)NC1=CC=CC=C1)C(=O)NC1CCOC1O,DFTOOBKXSNAAPW-UHFFFAOYSA-N,-2.37
"(2,4,6-trimethylcyclohex-3-en-1-yl)methanol",,CC1CC(=CC(C)C1CO)C,DMXUBGVVJLVCPB-UHFFFAOYSA-N,-2.371197393
"1,2-dibromo-3-chloropropane",,ClCC(Br)CBr,WBEJYOJJBDISQU-UHFFFAOYSA-N,-2.374
5-(dithiolan-3-yl)valeric acid,,OC(=O)CCCCC1CCSS1,AGBQKNBQESQNJD-UHFFFAOYSA-N,-2.375047335
chlorocyclohexane,,ClC1CCCCC1,UNFUYWDGSFDHCW-UHFFFAOYSA-N,-2.3752
"1,2,4,5-tetrafluorobenzene",,Fc1cc(F)c(F)cc1F,SDXUIOOHCIQXRP-UHFFFAOYSA-N,-2.3757
"3-pyridinecarboxylic acid, pentyl ester",,CCCCCOC(=O)c1cccnc1,SYIRQWIOOCVBTC-UHFFFAOYSA-N,-2.3776
Allopurinol,CAS315-30-0,O=c1[nH]cnc2[nH]ncc12,OFCNXPDARWKPPY-UHFFFAOYSA-N,-2.38
"acetamide, 2-(benzoyloxy)-n,n-dipropyl-",,CCCN(CCC)C(=O)COC(=O)c1ccccc1,COTRONQEHWUCRV-UHFFFAOYSA-N,-2.3791
dihydroxy-dioxomolybdenum,,O[Mo](O)(=O)=O,VLAPMBHFAWRUQP-UHFFFAOYSA-L,-2.379760962
methyl 2-(4-chlorophenylsulfonyl)acetate;  2-(4-chlorophenylsulfonyl)acetic acid methyl ester,,COC(=O)C[S](=O)(=O)C1=CC=C(Cl)C=C1,RWMPWXCERLGUAF-UHFFFAOYSA-N,-2.38
"1,2-dicyanobenzene;  phthalonitrile",,N#CC1=C(C=CC=C1)C#N,XQZYPMVTSDWCCE-UHFFFAOYSA-N,-2.38
1-acetylallopurinol,,CC(=O)[N]1N=CC2=C1N=CNC2=O,HBVOLZAKVSHTFL-UHFFFAOYSA-N,-2.38
boc-phe-his-sta-leu-nh-ch2-4-pyridyl-n-oxide;  (analog 7),,CC(C)CC(NC(=O)C(CC1=C[NH]C=N1)NC(=O)C(CC2=CC=CC=C2)NC(=O)OC(C)(C)C)C(O)CC(=O)NC(CC(C)C)C(=O)NCC3=CC=[N+]([O-])C=C3,ZJYMBDYMFYOXJD-UHFFFAOYSA-N,-2.38
"5-(2-Hydroxyethyl)-5-pentyl-2-thioxodihydro-4,6(1H,5H)-pyrimidinedione",,CCCCCC1(CCO)C(=O)NC(=S)NC1=O,XGVHRUPAYMKJBO-UHFFFAOYSA-N,-2.38
2-diethylaminopropyl 4-aminobenzoate,,CCN(CC)C(C)COC(=O)C1=CC=C(N)C=C1,AAKAAFFHKNBIKB-UHFFFAOYSA-N,-2.38
"3-methyl-3,4-dihydro-1H-1,4-benzodiazepine-2,5-dione",,CC1NC(=O)C2=C(C=CC=C2)NC1=O,LJONQULKOKMKBR-UHFFFAOYSA-N,-2.38
2-[(4-fluorophenyl)sulfonylamino]-~{N}-(2-hydroxyoxolan-3-yl)-3-methylbutanamide,,CC(C)C(NS(=O)(=O)C1=CC=C(F)C=C1)C(=O)NC1CCOC1O,QHZOMDFYCYONFD-UHFFFAOYSA-N,-2.38
alpha-chlorotoluene,,ClCc1ccccc1,KCXMKQUNVWSEMD-UHFFFAOYSA-N,-2.3822
rosolic acid,,Oc1ccc(cc1)C(c2ccc(O)cc2)=C3C=CC(=O)C=C3,FYEHYMARPSSOBO-UHFFFAOYSA-N,-2.3837
4-methyl-2-nitrophenol,,Cc1ccc(O)c(c1)[N+]([O-])=O,SYDNSSSQVSOXTN-UHFFFAOYSA-N,-2.3837
"2-chloro-4,6-diamino-s-triazine",,Nc1nc(N)nc(Cl)n1,FVFVNNKYKYZTJU-UHFFFAOYSA-N,-2.3849
"phenol, 4-amino-2,6-dinitro-",,Nc1cc(c(O)c(c1)[N+]([O-])=O)[N+]([O-])=O,TTXPIURLJOPGTE-UHFFFAOYSA-N,-2.3853
palladium(2+) ion diacetate,,[Pd++].CC([O-])=O.CC([O-])=O,YJVFFLUZDVXJQI-UHFFFAOYSA-L,-2.3865009
3-methylthiophene,,Cc1cscc1,QENGPZGAWFQWCZ-UHFFFAOYSA-N,-2.3899
thioanisole,,CSc1ccccc1,HNKJADCVZUBCPG-UHFFFAOYSA-N,-2.39
butabarbital;  5-sec-butyl-5-ethylbarbituric acid,,CCC(C)C1(CC)C(=O)NC(=O)NC1=O,ZRIHAIZYIMGOAB-UHFFFAOYSA-N,-2.39
6-(s-propanoyloxymethyl)mercaptopurine,,CCC(=O)OCSC1=NC=NC2=C1N=C[NH]2,WQEDLDHMYLYHIP-UHFFFAOYSA-N,-2.39
"6,7-diethyl-1h-pteridine-2,4-dione;  ""2,4-dihydroxy-6,7-diethylpteridine""",,CCC1=NC2=C(N=C1CC)C(=O)NC(=O)N2,PNLRJGYHLCFMLM-UHFFFAOYSA-N,-2.39
nonanebis(thioic S-acid),,OC(=S)CCCCCCCC(O)=S,FUCIMTBKFFVPSB-UHFFFAOYSA-N,-2.39
2-methylacridin-9-amine,,CC1=CC2=C(N)C3=C(C=CC=C3)N=C2C=C1,QQRIRFIZTPHLEM-UHFFFAOYSA-N,-2.39
"5-ethyl-5-pentan-2-yl-1,3-diazinane-2,4,6-trione",,CCCC(C)C1(CC)C(=O)NC(=O)NC1=O,WEXRUCMBJFQVBZ-UHFFFAOYSA-N,-2.39
"1,2-cyclohexanedione, 4-isopropyl-, dioxime",,CC(C)C1CCC(=NO)C(C1)=NO,NYHAZDHVIPVSDM-UHFFFAOYSA-N,-2.3903
2-amino-5-chlorophenol,,Nc1ccc(Cl)cc1O,FZCQMIRJCGWWCL-UHFFFAOYSA-N,-2.390659928
"1-butene, 4-isothiocyanato-",,C=CCCN=C=S,SKIHGKNFJKJXPX-UHFFFAOYSA-N,-2.391
Guanfacine Hydrochloride,CAS29110-48-3,Cl.N=C(N)NC(=O)Cc1c(Cl)cccc1Cl,DGFYECXYGUIODH-UHFFFAOYSA-N,-2.39
4-tert-butylphenol,,CC(C)(C)c1ccc(O)cc1,QHPQWRBYOIRBIT-UHFFFAOYSA-N,-2.391400814
"glycine, n-(2,4,6-trinitrophenyl)-",,OC(=O)CNc1c(cc(cc1[N+]([O-])=O)[N+]([O-])=O)[N+]([O-])=O,BUBMNUKMCHTIRR-UHFFFAOYSA-N,-2.3922
"2,4,6-trichlorophenol",,Oc1c(Cl)cc(Cl)cc1Cl,LINPIYWFGCPVIE-UHFFFAOYSA-N,-2.3924
3-quinolinol,,Oc1cnc2ccccc2c1,IQQDNMHUOLMLNJ-UHFFFAOYSA-N,-2.3925
1H-benzimidazol-2-ol,,O=C1Nc2ccccc2N1,SILNNFMWIMZVEQ-UHFFFAOYSA-N,-2.392751997
tetrasodium 8-[[4-[(4-amino-3-sulphonatophenyl)azo]-6-sulphonatonaphthyl]azo]-5-[[6-(benzoylamino)-1-hydroxy-3-sulphonato-2-naphthyl]azo]naphthalene-2-sulphonate,,[Na+].[Na+].[Na+].[Na+].Nc1ccc(cc1[S]([O-])(=O)=O)N=Nc2ccc(N=Nc3ccc(N\N=C/4C(=O)c5ccc(NC(=O)c6ccccc6)cc5C=C4[S]([O-])(=O)=O)c7ccc(cc37)[S]([O-])(=O)=O)c8ccc(cc28)[S]([O-])(=O)=O,WSKMZXPHHJCCDK-HTWUECFASA-J,-2.393595358
2-methyl-1-phenylpropan-2-yl acetate,,CC(=O)OC(C)(C)Cc1ccccc1,FLUWAIIVLCVEKF-UHFFFAOYSA-N,-2.394649969
2-chloroethyl vinyl ether,,ClCCOC=C,DNJRKFKAFWSXSE-UHFFFAOYSA-N,-2.3951
mecoprop-p,,C[C@@H](Oc1ccc(Cl)cc1C)C(O)=O,WNTGYJSOUMFZEP-SSDOTTSWSA-N,-2.3972
"cinnamic acid, p-methoxy-",,COc1ccc(\C=C\C(O)=O)cc1,AFDXODALSZRGIH-QPJJXVBHSA-N,-2.3984
ethyl benzoate,,CCOC(=O)c1ccccc1,MTZQAGJQAFMTAQ-UHFFFAOYSA-N,-2.39990224
4-(4-hydroxyphenyl)sulfonylfuran-2-sulfonamide,,NS(=O)(=O)C1=CC(S(=O)(=O)C2=CC=C(O)C=C2)=CO1,NKPDCGFEJUINIK-UHFFFAOYSA-N,-2.4
2-fluoroacridin-9-amine,,NC1=C2C=C(F)C=CC2=NC2=C1C=CC=C2,HOVVFNPKGWZRTE-UHFFFAOYSA-N,-2.4
"acetamide, n-acetyl-2-(benzoyloxy)-",,CC(=O)NC(=O)COC(=O)c1ccccc1,NZDAAPUTURAWII-UHFFFAOYSA-N,-2.4003
11-aminoundecanoic acid,,NCCCCCCCCCCC(O)=O,GUOSQNAUYHMCRU-UHFFFAOYSA-N,-2.400775362
"2,3-dimethyl-1,3-butadiene",,CC(=C)C(C)=C,SDJHPPZKZZWAKF-UHFFFAOYSA-N,-2.4014
"carbamic acid, sulfamoyl-, 2-ethylhexyl ester",,CCCCC(CC)COC(=O)N[S](N)(=O)=O,VBQMNYJZEYFKPQ-UHFFFAOYSA-N,-2.402
magnesium,,[Mg++],JLVVSXFLKOJNIY-UHFFFAOYSA-N,-2.402069338
"sodium 2-[(4-hydroxy-9,10-dioxo-9,10-dihydroanthracen-1-yl)amino]-5-methylbenzene-1-sulfonate",,[Na+].Cc1ccc(Nc2ccc(O)c3C(=O)c4ccccc4C(=O)c23)c(c1)[S]([O-])(=O)=O,GTKIEPUIFBBXJQ-UHFFFAOYSA-M,-2.402393281
"propanoic acid, 3-butoxy-, butyl ester",,CCCCOCCC(=O)OCCCC,BMOACRKLCOIODC-UHFFFAOYSA-N,-2.4029
"1,1-dichlorobutane",,CCCC(Cl)Cl,SEQRDAAUNCRFIT-UHFFFAOYSA-N,-2.4036
Triamterene,,Nc3nc(N)c2nc(c1ccccc1)c(N)nc2n3,FNYLWPVRPXGIIP-UHFFFAOYSA-N,-2.404
2-[(E)-oct-2-enyl]butanedioic acid,,CCCCC/C=C/CC(CC(O)=O)C(O)=O,QWBQTFQCJMOSPK-VOTSOKGWSA-N,-2.404240574
"N-(4-amino-2,5-diethoxyphenyl)benzamide",,CCOc1cc(NC(=O)c2ccccc2)c(OCC)cc1N,CNXZLZNEIYFZGU-UHFFFAOYSA-N,-2.405757197
2-amino-4-chloro-5-methylbenzenesulfonic acid,,Cc1cc(c(N)cc1Cl)[S](O)(=O)=O,VRLPHBSFRWMMPW-UHFFFAOYSA-N,-2.406177873
N-(2-chlorophenyl)-3-oxobutanamide,,CC(=O)CC(=O)Nc1ccccc1Cl,BFVHBHKMLIBQNN-UHFFFAOYSA-N,-2.406536077
3'-methylphthalanilic acid,,Cc1cccc(NC(=O)c2ccccc2C(O)=O)c1,AZPJXONNBLOZFE-UHFFFAOYSA-N,-2.407
sodium 2-(dodecanoyloxy)ethanesulfonate,,[Na+].CCCCCCCCCCCC(=O)OCC[S]([O-])(=O)=O,BRMSVEGRHOZCAM-UHFFFAOYSA-M,-2.408479245
8-cinnolinol,,Oc1cccc2ccnnc12,UCYUOFIVFHOUTP-UHFFFAOYSA-N,-2.4089
"3,7-dimethylnona-1,6-dien-3-ol",,CC/C(C)=C/CCC(C)(O)C=C,KRLBLPBPZSSIGH-CSKARUKUSA-N,-2.409128664
ethyl 3-phenyloxirane-2-carboxylate,,CCOC(=O)C1OC1c2ccccc2,GOMAKLPNAAZVCJ-UHFFFAOYSA-N,-2.409651238
isopropyl  2-(4-chlorophenylsulfonyl)acetate; 2-(4-chlorophenylsulfonyl)acetic acid isopropyl ester,,CC(C)OC(=O)C[S](=O)(=O)C1=CC=C(Cl)C=C1,DBCUYSCFFFBUJG-UHFFFAOYSA-N,-2.41
5-aminouracil,,NC1=CNC(=O)NC1=O,BISHACNKZIBDFM-UHFFFAOYSA-N,-2.41
"2-Methyl-4,6-dioxo-1H-pyrimidine-5-carboxamide",,CC1=NC(=O)C(C(N)=O)C(=O)N1,PWFVEUKVVSDJDO-UHFFFAOYSA-N,-2.41
2-Hydroxy-3-phenoxy-N-phenylpropanamide,,O=C(NC1=CC=CC=C1)C(O)COC1=CC=CC=C1,WCTKZGMVCGDGLZ-UHFFFAOYSA-N,-2.41
"1,2-diethoxybenzene",,CCOc1ccccc1OCC,QZYDOKBVZJLQCK-UHFFFAOYSA-N,-2.41045076
sulfamethiazole,,Cc1sc(N[S](=O)(=O)c2ccc(N)cc2)nn1,VACCAVUAMIDAGB-UHFFFAOYSA-N,-2.4107
"(2E)-3,7-dimethylocta-2,6-dienal",,CC(C)=CCC\C(C)=C\C=O,WTEVQBCEXWBHNA-JXMROGBWSA-N,-2.411668206
calcium bis(2-methyloctanoate),,[Ca++].CCCCCCCCC([O-])=O.CCCCCCCCC([O-])=O,QSSGIYRIEKPVTG-UHFFFAOYSA-L,-2.412949573
desisopropylatrazine,,CCNc1nc(N)nc(Cl)n1,IVENSCMCQBJAKW-UHFFFAOYSA-N,-2.4135
m-nitrobenzyl alcohol,,OCc1cccc(c1)[N+]([O-])=O,CWNPOQFCIIFQDM-UHFFFAOYSA-N,-2.4142
p-nitroanisole,,COc1ccc(cc1)[N+]([O-])=O,BNUHAJGCKIQFGE-UHFFFAOYSA-N,-2.4142
"[(2R,3R,4S,5R,6R)-3,4,5,6-tetrakis(acetyloxy)oxan-2-yl]methyl acetate",,CC(=O)OCC1OC(OC(C)=O)C(OC(C)=O)C(OC(C)=O)C1OC(C)=O,LPTITAGPBXDDGR-UHFFFAOYSA-N,-2.415352911
alpha-glucose pentaacetate,,CC(=O)OC[C@@H](OC(C)=O)[C@@H](OC(C)=O)[C@H](OC(C)=O)[C@@H](OC(C)=O)C=O,UAOKXEHOENRFMP-ZJIFWQFVSA-N,-2.4154