Name,ID,SMILES,inchi,LogS
"potassium sodium 2-{[4-({4-[(4-amino-9,10-dioxo-3-sulfonato-9,10-dihydroanthracen-1-yl)amino]cyclohexyl}amino)-6-fluoro-1,3,5-triazin-2-yl]amino}benzene-1,4-disulfonate",,[Na+].[K+].Nc1c(cc(NC2CCC(CC2)Nc3nc(F)nc(Nc4cc(ccc4[S]([O-])(=O)=O)[S]([O-])(=O)=O)n3)c5C(=O)c6ccccc6C(=O)c15)[S]([O-])(=O)=O,GAMLGDIDSXFYEU-UHFFFAOYSA-K,-0.75694657
"1,1,1-trichloro-2-propanol",,CC(O)C(Cl)(Cl)Cl,HCMBPASAOZIEDZ-UHFFFAOYSA-N,-0.7574
methyl 3-sulfanylpropanoate,,COC(=O)CCS,LDTLDBDUBGAEDT-UHFFFAOYSA-N,-0.757587608
"trisodium 4-{[4-({3-[(4-amino-6-chloro-1,3,5-triazin-2-yl)amino]-4-sulfonatophenyl}amino)-6-chloro-1,3,5-triazin-2-yl]amino}-6-[(E)-2-(5-carbamoyl-1-ethyl-2-hydroxy-4-methyl-6-oxo-1,6-dihydropyridin-3-yl)diazen-1-yl]benzene-1,3-disulfonate",,[Na+].[Na+].[Na+].CCN1C(=O)C(=N/Nc2cc(Nc3nc(Cl)nc(Nc4ccc(c(Nc5nc(N)nc(Cl)n5)c4)[S]([O-])(=O)=O)n3)c(cc2[S]([O-])(=O)=O)[S]([O-])(=O)=O)\C(=C(C(N)=O)C1=O)C,FGZWHMWBAASFOQ-YMOXRGJDSA-K,-0.759001213
3-methylbutanal,,CC(C)CC=O,YGHRJJRRZDOVPD-UHFFFAOYSA-N,-0.759083357
N-butylsulfonylbutane-1-sulfonamide,,CCCCS(=O)(=O)NS(=O)(=O)CCCC,USMKZCJHQPVMTB-UHFFFAOYSA-N,-0.76
2-(benzoylamino)-2-methylpropanoic acid,,CC(C)(NC(=O)C1=CC=CC=C1)C(=O)O,AXAMLHJXUICVAY-UHFFFAOYSA-N,-0.76
"ethanone, 2-methoxy-1-phenyl-",,COCC(=O)c1ccccc1,YRNDGUSDBCARGC-UHFFFAOYSA-N,-0.7616
hydroxylamine,,NO,AVXURJPOCDRRFD-UHFFFAOYSA-N,-0.763033718
"sodium 2,4-diamino-5-[(E)-2-(2-hydroxy-5-nitrophenyl)diazen-1-yl]benzene-1-sulfonate",,[Na+].Nc1cc(N)c(cc1N=Nc2cc(ccc2O)[N+]([O-])=O)[S]([O-])(=O)=O,QHMUUKSTOXAOST-UHFFFAOYSA-M,-0.763942094
"barbituric acid, 5-acetonyl-5-ethyl-",,CCC1(CC(C)=O)C(=O)NC(=O)NC1=O,MMACXIHIWOQNOV-UHFFFAOYSA-N,-0.7661
azane; molybdenum; tetracosahydrate,,N.N.N.N.N.N.O.O.O.O.O.O.O.O.O.O.O.O.O.O.O.O.O.O.O.O.O.O.O.O.[Mo].[Mo].[Mo].[Mo].[Mo].[Mo].[Mo],QGAVSDVURUSLQK-UHFFFAOYSA-N,-0.766472623
"tetrasodium 5-[(E)-2-{2,4-dihydroxy-5-[(E)-2-{4-[(4-nitro-2-sulfonatophenyl)amino]phenyl}diazen-1-yl]phenyl}diazen-1-yl]-4-hydroxy-3-[(E)-2-{4-[(4-nitro-2-sulfonatophenyl)amino]phenyl}diazen-1-yl]naphthalene-2,7-disulfonate",,[Na+].[Na+].[Na+].[Na+].Oc1cc(O)c(cc1N=Nc2ccc(Nc3ccc(cc3[S]([O-])(=O)=O)[N+]([O-])=O)cc2)N=Nc4cc(cc5cc(c(N=Nc6ccc(Nc7ccc(cc7[S]([O-])(=O)=O)[N+]([O-])=O)cc6)c(O)c45)[S]([O-])(=O)=O)[S]([O-])(=O)=O,YEYRLCHTGWGSQF-UHFFFAOYSA-J,-0.76675145
isobutyl urethane,,CCOC(=O)NCC(C)C,XHQBGKPHDZWOHT-UHFFFAOYSA-N,-0.768
n-methyl-n-nitrosoacetamide,,CN(N=O)C(C)=O,FFLFWNRFMZRFKU-UHFFFAOYSA-N,-0.7684
3-propanoyloxymethyl-5-fluorouracil,,CCC(=O)OCN1C(=O)NC=C(F)C1=O,BRSJKDUSGHPJJY-UHFFFAOYSA-N,-0.77
3-deazauridine,,OCC1OC(C(O)C1O)N2C=CC(=O)CC2=O,WIRVQQCUKDPURA-UHFFFAOYSA-N,-0.77
"1,2-diethoxyethane",,CCOCCOCC,LZDKZFUFMNSQCJ-UHFFFAOYSA-N,-0.77
"4-(5-amino-1,3,4-oxadiazol-2-yl)phenol",,NC1=NN=C(C2=CC=C(O)C=C2)O1,IEQCJAQNEVFLQV-UHFFFAOYSA-N,-0.77
Amigdalin,,OCC3OC(OCC2OC(OC(C#N)c1ccccc1)C(O)C(O)C2O)C(O)C(O)C3O ,XUCIJNAGGSZNQT-UHFFFAOYSA-N,-0.77
2-methoxyethyl mercuric chloride,,[Cl-].COCC[Hg+],VJTAZCKMHINUKO-UHFFFAOYSA-M,-0.771
"hydrogen [4-[[4-(diethylamino)phenyl][4-[ethyl(3-sulphonatobenzyl)amino]phenyl]methylene]cyclohexa-2,5-dien-1-ylidene](ethyl)(3-sulphonatobenzyl)ammonium, sodium salt",,[Na+].CCN(CC)c1ccc(cc1)[C+](c2ccc(cc2)N(CC)Cc3cccc(c3)[S]([O-])(=O)=O)c4ccc(cc4)N(CC)Cc5cccc(c5)[S]([O-])(=O)=O,FJBHGWADYLMEJG-UHFFFAOYSA-M,-0.77170269
N-Butylphosphorothioic triamide,,CCCCN[P](N)(N)=S,HEPPIYNOUFWEPP-UHFFFAOYSA-N,-0.773033917
2-methyl-6-chlorophenol,,Cc1cccc(Cl)c1O,YPNZJHFXFVLXSE-UHFFFAOYSA-N,-0.7739
"2-[2-[4-[(2-cyanoethyl)methylamino]phenyl]vinyl]-1,3,3-trimethyl-3H-indolium hydrogen sulphate",,CN(CCC#N)c1ccc(cc1)C=CC2=[N+](C)c3ccccc3C2(C)C.[O-][S]([O-])(=O)=O,SMCZLJWHBOXGOO-UHFFFAOYSA-L,-0.774172069
salicylonitrile,,Oc1ccccc1C#N,CHZCERSEMVWNHL-UHFFFAOYSA-N,-0.774965627
"ethanediimidamide, n,n''-dihydroxy-",,N\C(NO)=C(/N)N=O,XYIWQQBZKLUEND-UPHRSURJSA-N,-0.7773
Tazobactam Sodium,CAS89785-84-2,C[C@@]1(Cn2ccc(-n3cccc3)c2-n2cccc2)[C@H](C(=O)[O-])N2C(=O)C[C@@H]2S1(=O)=O.[Na+],VXGOIIGPCYVLGQ-AXKMXRCYSA-M,-0.78
"1,2-benzenediol, 4-(2-propenyl)-",,Oc1ccc(CC=C)cc1O,FHEHIXJLCWUPCZ-UHFFFAOYSA-N,-0.7787
1h-benzotriazole,,[nH]1nc2ccccc2n1,QRUDEWIWKLJBPS-UHFFFAOYSA-N,-0.7794
2-[(acetyloxy)methyl]prop-2-en-1-yl acetate,,CC(=O)OCC(=C)COC(C)=O,FKAKGSJLTBVQOP-UHFFFAOYSA-N,-0.77961667
Debrisoquine,CAS1131-64-2,N=C(N)N1CCc2ccccc2C1,JWPGJSVJDAJRLW-UHFFFAOYSA-N,-0.78
dicyanodiamidine sulfate,,NC(N)=NC(N)=O.NC(N)=NC(N)=O.O[S](O)(=O)=O,IATXFPUBPMZBPH-UHFFFAOYSA-N,-0.7814
"2,4,5-trimethylpyridine",,Cc1cc(C)c(C)cn1,MNDSSKADVGDFDF-UHFFFAOYSA-N,-0.7824
"alanine, n-(aminocarbonyl)-",,C[C@H](NC(N)=O)C(O)=O,LUSWEUMSEVLFEQ-REOHCLBHSA-N,-0.7845
(3Z)-hex-3-en-1-ol,,CC\C=C/CCO,UFLHIIWVXFIJGU-ARJAWSKDSA-N,-0.785854804
2-phenylethan-1-ol,,OCCc1ccccc1,WRMNZCZEMHIOCP-UHFFFAOYSA-N,-0.785923914
dl-isoleucine,,CC[C@H](C)[C@@H](N)C(O)=O,AGPKZVBTJJNPAG-CRCLSJGQSA-N,-0.7875
"benzenamine, n-hydroxy-4-methyl-",,Cc1ccc(NO)cc1,AGJOAIMUXIQLCN-UHFFFAOYSA-N,-0.7894
1-[2-(2-butoxy-1-methylethoxy)-1-methylethoxy]propan-1-ol,,CCOCCCC(C)OCCOCC(C)CO,QVIFIIFBFORLSL-UHFFFAOYSA-N,-0.790860844
"n,n-diethyl succinamic acid",,CCN(CC)C(=O)CCC(O)=O,XILORGWKMLOGKF-UHFFFAOYSA-N,-0.7937
"purine-2,8(3h,9h)-dione, 3-methyl-",,CN1C(=O)N=CC2=C1NC(=O)N2,RWTDELNZTAXKEW-UHFFFAOYSA-N,-0.794
"2-hydroxypropanoic acid; 5-({bis[(2-aminopropyl)amino]-1,3,5-triazin-2-yl}amino)-3-{2-[4-({4-[(4-{2-[8-({bis[(2-aminopropyl)amino]-1,3,5-triazin-2-yl}amino)-1-hydroxy-3,6-disulfonaphthalen-2-yl]diazen-1-yl}phenyl)amino]-6-{[3-(diethylamino)propyl]amino}-1,3,5-triazin-2-yl}amino)phenyl]diazen-1-yl}-4-hydroxynaphthalene-2,7-disulfonic acid",,CCN(CC)CCCNc1nc(Nc2ccc(cc2)N=Nc3c(O)c4c(Nc5nc(NCC(C)N)nc(NCC(C)N)n5)cc(cc4cc3[S](O)(=O)=O)[S](O)(=O)=O)nc(Nc6ccc(cc6)N=Nc7c(O)c8c(Nc9nc(NCC(C)N)nc(NCC(C)N)n9)cc(cc8cc7[S](O)(=O)=O)[S](O)(=O)=O)n1.CC(O)C(O)=O,PQKUZJNOANDNSP-UHFFFAOYSA-N,-0.794219043
4-methyl-2-pentanol,,CC(C)CC(C)O,WVYWICLMDOOCFB-UHFFFAOYSA-N,-0.7945
"butanedioic acid, chloro-, (r)-",,OC(=O)C[C@@H](Cl)C(O)=O,QEGKXSHUKXMDRW-UWTATZPHSA-N,-0.7953
methyl bromide,,CBr,GZUXJHMPEANEGY-UHFFFAOYSA-N,-0.7956
"tyrosine, 3,5-dichloro-",,N[C@@H](Cc1cc(Cl)c(O)c(Cl)c1)C(O)=O,MPHURJQUHZHALJ-ZETCQYMHSA-N,-0.796
"butanedioic acid, 2,2-diethyl-",,CCC(CC)(CC(O)=O)C(O)=O,WKRCUUPMCASSBN-UHFFFAOYSA-N,-0.7962
diethyl carbonate,,CCOC(=O)OCC,OIFBSDVPJOWBCH-UHFFFAOYSA-N,-0.798209708
3-[(2-carboxyethyl)sulfanyl]propanoic acid,,OC(=O)CCSCCC(O)=O,ODJQKYXPKWQWNK-UHFFFAOYSA-N,-0.799143198
1-methyluracil,,CN1C=CC(=O)NC1=O,XBCXJKGHPABGSD-UHFFFAOYSA-N,-0.7998
2-hexanone,,O=C(CCCC)C,QQZOPKMRPOGIEB-UHFFFAOYSA-N,-0.8
methyl_methacrylate,,O=C(OC)C(=C)C,VVQNEPGJFQJSBK-UHFFFAOYSA-N,-0.8
4-aminophenol,,Oc(ccc(N)c1)c1,PLIKAWJENQZMHA-UHFFFAOYSA-N,-0.8
1-nitropropane,,CCCN(=O)=O,JSZOAYXJRCEYSX-UHFFFAOYSA-N,-0.8
tert-Amyl_Carbamate,,NC(=O)OCC(C)(C)C,AFQYFVWMIRMBAE-UHFFFAOYSA-N,-0.8
2-[(4-aminophenyl)sulfonylamino]benzoic acid,,NC1=CC=C(S(=O)(=O)NC2=C(C(=O)O)C=CC=C2)C=C1,FQQBKLWSOPUVAC-UHFFFAOYSA-N,-0.8
4-dimethylaminodiazenylbenzoic acid,,CN(C)N=NC1=CC=C(C(=O)O)C=C1,GUAZPUYTLMUTMA-UHFFFAOYSA-N,-0.8
"trisodium 5-({4-chloro-6-[ethyl(phenyl)amino]-1,3,5-triazin-2-yl}amino)-4-hydroxy-3-[(E)-2-(4-methyl-2-sulfonatophenyl)diazen-1-yl]naphthalene-2,7-disulfonate",,[Na+].[Na+].[Na+].CCN(c1ccccc1)c2nc(Cl)nc(Nc3cc(cc4C=C(\C(=N/Nc5ccc(C)cc5[S]([O-])(=O)=O)C(=O)c34)[S]([O-])(=O)=O)[S]([O-])(=O)=O)n2,WIBRJYWLQKJILM-YFVOZPKESA-K,-0.800434395
ethyl chloroacetate,,CCOC(=O)CCl,VEUUMBGHMNQHGO-UHFFFAOYSA-N,-0.8005
".beta.-alanine, n-(aminocarbonyl)-",,NC(=O)NCCC(O)=O,JSJWCHRYRHKBBW-UHFFFAOYSA-N,-0.8014
3-hexanol,,CCCC(O)CC,ZOCHHNOQQHDWHG-UHFFFAOYSA-N,-0.8025
(2-{[(2E)-2-cyano-2-{[4-(diethylamino)phenyl]methylidene}acetyl]oxy}ethyl)(3-{[(2E)-2-cyano-2-{[4-(diethylamino)phenyl]methylidene}acetyl]oxy}propyl)dimethylazanium chloride,,[Cl-].CCN(CC)c1ccc(cc1)/C=C(C#N)/C(=O)OCCC[N+](C)(C)CCOC(=O)\C(=C\c2ccc(cc2)N(CC)CC)C#N,DLNMMVNCTSAPOW-LMKNCCGPSA-M,-0.803618922
Acetaminophen; Paracetamol,PubChemCID1983,CC(=O)NC1=CC=C(C=C1)O,RZVAJINKPMORJF-UHFFFAOYSA-N,-0.8
"hydrogen 3,6-bis(diethylamino)-9-(2,4-disulphonatophenyl)xanthylium, sodium salt",,[Na+].CCN(CC)c1cc2[o+]c3cc(N(CC)CC)c(C)cc3c(c2cc1C)c4ccc(cc4[S]([O-])(=O)=O)[S]([O-])(=O)=O,XJENLUNLXRJLEZ-UHFFFAOYSA-M,-0.80532039
methyl (2Z)-3-aminobut-2-enoate,,COC(=O)\C=C(/C)N,XKORCTIIRYKLLG-ONEGZZNKSA-N,-0.805923544
Rizatriptan,CAS144034-80-0,CN(C)CCc1c[nH]c2ccc(Cn3cncn3)cc12,ULFRLSNUDGIQQP-UHFFFAOYSA-N,-0.81
2-ethylbutyric acid,,CCC(CC)C(O)=O,OXQGTIUCKGYOAA-UHFFFAOYSA-N,-0.8098
1-propanoyloxymethyl-5-fluorouracil,,CCC(=O)OCN1C=C(F)C(=O)NC1=O,ZAAKYBGGELSVCK-UHFFFAOYSA-N,-0.81
"4-nitro-2,6,7-trioxa-1$l^{5}-phosphabicyclo[2.2.2]octane 1-oxide",,C1C2(COP(=O)(O1)OC2)[N+](=O)[O-],BZJFTOLYBXIQHS-UHFFFAOYSA-N,-0.81
2-methyl-3-pentanone,,CCC(=O)C(C)C,HYTRYEXINDDXJK-UHFFFAOYSA-N,-0.8106
"hexasodium 2-{[4-(diethylamino)-6-({4-[(E)-2-(4-{[4-(diethylamino)-6-[(2,5-disulfonatophenyl)amino]-1,3,5-triazin-2-yl]amino}-2-sulfonatophenyl)ethenyl]-3-sulfonatophenyl}amino)-1,3,5-triazin-2-yl]amino}benzene-1,4-disulfonate",,[Na+].[Na+].[Na+].[Na+].[Na+].[Na+].CCN(CC)c1nc(Nc2ccc(\C=C\c3ccc(Nc4nc(Nc5cc(ccc5[S]([O-])(=O)=O)[S]([O-])(=O)=O)nc(n4)N(CC)CC)cc3[S]([O-])(=O)=O)c(c2)[S]([O-])(=O)=O)nc(Nc6cc(ccc6[S]([O-])(=O)=O)[S]([O-])(=O)=O)n1,KMPSLWWDIJFERN-PTNBLCRGSA-H,-0.812249023
glycidyl n-butyl ether,,CCCCOCC1CO1,YSUQLAYJZDEMOT-UHFFFAOYSA-N,-0.8135
ammonium trioxovanadate(1-),,[V],LEONUFNNVUYDNQ-UHFFFAOYSA-N,-0.814424958
cyclophosphamide,,ClCCN(CCCl)[P]1(=O)NCCCO1,CMSMOCZEIVJLDB-UHFFFAOYSA-N,-0.8147
2-amino-3-(phosphonooxy)propanoic acid,,N[C@@H](CO[P](O)(O)=O)C(O)=O,BZQFBWGGLXLEPQ-REOHCLBHSA-N,-0.814940872
".beta.-d-glucopyranose, 4-o-.beta.-d-galactopyra",,OC[C@H]1O[C@@H](O[C@H]2[C@H](O)[C@@H](O)[C@H](O)O[C@@H]2CO)[C@H](O)[C@@H](O)[C@H]1O,GUBGYTABKSRVRQ-DCSYEGIMSA-N,-0.8167
"disodium 4-[(E)-2-[2,6-dihydroxy-3-(hydroxymethyl)-5-[(E)-2-(4-sulfonatonaphthalen-1-yl)diazen-1-yl]phenyl]diazen-1-yl]naphthalene-1-sulfonate",,[Na+].[Na+].OCC1=CC(=N/Nc2ccc(c3ccccc23)[S]([O-])(=O)=O)\C(=O)/C(=N/Nc4ccc(c5ccccc45)[S]([O-])(=O)=O)C1=O,TUQJHVRCALPCHU-CRVUNLCOSA-L,-0.817164744
1-(acetyloxy)but-3-en-2-yl acetate,,CC(=O)OC[C@@H](OC(C)=O)C=C,MWWXARALRVYLAE-QMMMGPOBSA-N,-0.817681412
flumethazide,,N[S](=O)(=O)c1cc2c(NC=N[S]2(=O)=O)cc1C(F)(F)F,RGUQWGXAYZNLMI-UHFFFAOYSA-N,-0.8186
diethylene glycol monobutyl ether acetate,,CCCCOCCOCCOC(C)=O,VXQBJTKSVGFQOL-UHFFFAOYSA-N,-0.8188
"adipic  acid; 1,6-hexanedioic acid",,OC(=O)CCCCC(O)=O,WNLRTRBMVRJNCN-UHFFFAOYSA-N,-0.82
diethyl_malonate,,O=C(OCC)CC(=O)OCC,IYXGSMUGOJNHAZ-UHFFFAOYSA-N,-0.82
furan,,O1C=CC=C1,YLQBMQCUIZJEEH-UHFFFAOYSA-N,-0.82
3-o-Ethylmorphine,,CCOC1=C2OC3C(O)C=CC4C5CC(=C2C43CCN5C)C=C1,OGDVEMNWJVYAJL-UHFFFAOYSA-N,-0.82
Methyl butyrate,,CCCOC(=O)CC,MCSINKKTEDDPNK-UHFFFAOYSA-N,-0.82
chlorofluoromethane,,FCCl,XWCDCDSDNJVCLO-UHFFFAOYSA-N,-0.8202
"2,4,6-trimethylbenzene-1,3-diamine",,Cc1cc(C)c(N)c(C)c1N,ZVDSMYGTJDFNHN-UHFFFAOYSA-N,-0.820716356
2-methylbutanal,,CCC(C)C=O,BYGQBDHUGHBGMD-UHFFFAOYSA-N,-0.821231264
"hydantoin, 5-methyl-5-(2-piperidinoethyl)-",,CC1(CCN2CCCCC2)NC(=O)NC1=O,PXXUBGGGONGQBX-UHFFFAOYSA-N,-0.8213
"tris(tris(2-hydroxyethyl)azanium) 2-(cyanoamino)-5-{2-[4-({4-[2-(6,8-disulfonatonaphthalen-2-yl)diazen-1-yl]-2-methoxyphenyl}carbamoyl)phenyl]diazen-1-yl}-6-hydroxypyrimidin-4-olate",,COc1cc(ccc1NC(=O)c2ccc(cc2)N=Nc3c(O)nc(NC#N)nc3[O-])N=Nc4ccc5cc(cc(c5c4)[S]([O-])(=O)=O)[S]([O-])(=O)=O.OCC[NH+](CCO)CCO.OCC[NH+](CCO)CCO.OCC[NH+](CCO)CCO,ZVINZNDATUGYAW-UHFFFAOYSA-N,-0.821648982
2-methoxyphenol,,COc1ccccc1O,LHGVFZTZFXWLCP-UHFFFAOYSA-N,-0.8221
"propanoic acid, 3-amino-2-hydroxy-",,NCC(O)C(O)=O,BMYNFMYTOJXKLE-UHFFFAOYSA-N,-0.8229
propane-2-thiosulfinic acid s-isopropyl ester,,CC(C)S[S](=O)C(C)C,IYZLJTJFIUHNRL-UHFFFAOYSA-N,-0.823
sodium oxidooxy-oxoborane hydrate,,O.[Na+].[O-]OB=O,MDGXUEVTGARGDK-UHFFFAOYSA-M,-0.823100201
"pyridine, 2-ethyl-6-methyl-",,CCc1cccc(C)n1,SFSXNVBMAODLGN-UHFFFAOYSA-N,-0.8234
"2-furancarboxylic acid, 5-methyl-",,Cc1oc(cc1)C(O)=O,OVOCLWJUABOAPL-UHFFFAOYSA-N,-0.8243
"Cuprate(6-), [2-[[[[3-[[4-chloro-6-[[4-[[4-chloro-6-[(3-sulfophenyl)amino]-1,3,5-triazin-2-yl]amino]-2,5-disulfophenyl]amino]-1,3,5-triazin-2-yl]amino]-2-hydroxy-5-sulfophenyl]azo]phenylmethyl]azo]-5-sulfobenzoato(8-)]-, pentasodium hydrogen, (SP-4-3)-",,[Na+].[Na+].[Na+].[Na+].[Na+].[Cu++].[O-]C(=O)c1cc(ccc1NNC(=N/Nc2cc(cc([N-]c3nc(Cl)nc(n3)N=C4C=C(C(C=C4[S]([O-])(=O)=O)=Nc5nc(Cl)nc(Nc6cccc(c6)[S]([O-])(=O)=O)n5)[S]([O-])(=O)=O)c2[O-])[S]([O-])(=O)=O)\c7ccccc7)[S]([O-])(=O)=O.[H+],NKKZYKFZYINUQZ-UHFFFAOYSA-G,-0.825411234
3-hydroxy-aspartic acid,,N[C@@H]([C@@H](O)C(O)=O)C(O)=O,YYLQUHNPNCGKJQ-NHYDCYSISA-N,-0.8271
"disodium 4-amino-3-[(E)-2-{4-[(E)-2-(2,4-diaminophenyl)diazen-1-yl]phenyl}diazen-1-yl]-5-hydroxy-6-[(E)-2-phenyldiazen-1-yl]naphthalene-2,7-disulfonate",,[Na+].[Na+].Nc1ccc(N=Nc2ccc(cc2)N=Nc3c(N)c4C(=O)C(=N/Nc5ccccc5)/C(=Cc4cc3[S]([O-])(=O)=O)[S]([O-])(=O)=O)c(N)c1,YMIBJBNQAFRCFJ-DCWIDPHOSA-L,-0.827397585
"benzenesulfonic acid, 3-hydrazino-",,NNc1cccc(c1)[S](O)(=O)=O,ZDGHHRPKFCVOJL-UHFFFAOYSA-N,-0.8275
3-[hydroxy(phenyl)phosphoryl]propanoic acid,,OC(=O)CC[P](O)(=O)c1ccccc1,MORLYCDUFHDZKO-UHFFFAOYSA-N,-0.828305155
1-hexen-3-one,,O=C(C=C)CCC,JTHNLKXLWOXOQK-UHFFFAOYSA-N,-0.83
Allicin,,C=CCS(=O)SCC=C,JDLKFOPOAOFWQN-UHFFFAOYSA-N,-0.83
potassium (2S)-4-carboxy-2-tetradecanamidobutanoate,,[K+].CCCCCCCCCCCCCC(=O)N[C@@H](CCC(O)=O)C([O-])=O,KYLDDUZJZSKJER-NTISSMGPSA-M,-0.830822577
"2,5-piperazinedione",,O=C1CNC(=O)CN1,BXRNXXXXHLBUKK-UHFFFAOYSA-N,-0.8312
methylbutyrate,,CCCC(=O)OC,UUIQMZJEGPQKFD-UHFFFAOYSA-N,-0.8331
3-hexanone,,CCCC(=O)CC,PFCHFHIRKBAQGU-UHFFFAOYSA-N,-0.8334
nicotinic acid,,OC(=O)c1cccnc1,PVNIIMVLHYAWGP-UHFFFAOYSA-N,-0.835
N-phenyl-N-(piperidin-4-yl)propanamide,,CCC(=O)N(C1CC[NH2+]CC1)c2ccccc2,PMCBDBWCQQBSRJ-UHFFFAOYSA-O,-0.835225508
sodium 3-({3-methoxy-4-[(4-methoxyphenyl)diazenyl]phenyl}diazenyl)benzenesulfonate,,[Na+].COc1ccc(cc1)N=Nc2ccc(cc2OC)N=Nc3cccc(c3)[S]([O-])(=O)=O,JGUAUYIJLLJIQS-UHFFFAOYSA-M,-0.83545917
"2-thiophenepropanoic acid, .alpha.-amino-",,NC(Cc1sccc1)C(O)=O,WTOFYLAWDLQMBZ-UHFFFAOYSA-N,-0.8356
"2-propenoic acid, 3,3-dibromo-",,OC(=O)C=C(Br)Br,VWWPGQPTCCQNIO-UHFFFAOYSA-N,-0.8358
"1,2,3-benzenetricarboxylic acid",,OC(=O)c1cccc(C(O)=O)c1C(O)=O,UJMDYLWCYJJYMO-UHFFFAOYSA-N,-0.837
"hexanedioic acid, 2,5-dihydroxy-2,5-dimethyl-",,CC(O)(CCC(C)(O)C(O)=O)C(O)=O,KDLPLSPPCRJHGC-UHFFFAOYSA-N,-0.8372
bis(4-hydroxy-N-methylanilinium) sulfate,,CNc1ccc(O)cc1.CNc2ccc(O)cc2.O[S](O)(=O)=O,ZVNPWFOVUDMGRP-UHFFFAOYSA-N,-0.838079267
"sodium 4-{4-[(E)-2-(3-chloro-2-hydroxy-5-nitrophenyl)diazen-1-yl]-3-methyl-5-oxo-4,5-dihydro-1H-pyrazol-1-yl}benzene-1-sulfonate",,[Na+].CC1=NN(C(=O)C1N\N=C\2C=C(C=C(Cl)C2=O)[N+]([O-])=O)c3ccc(cc3)[S]([O-])(=O)=O,ZKFDTMJWIJPGLE-PUBYZPQMSA-M,-0.838577173
4-(Hydroxyamino)benzenesulfonamide,,NS(=O)(=O)C1=CC=C(NO)C=C1,JLGHCFNZJKVXAE-UHFFFAOYSA-N,-0.84
"disodium 2-(2,4,5,7-tetrabromo-6-oxido-3-oxo-3H-xanthen-9-yl)benzoate",,[Na+].[Na+].[O-]C(=O)c1ccccc1C2=C3C=C(Br)C(=O)C(=C3Oc4c(Br)c([O-])c(Br)cc24)Br,SEACYXSIPDVVMV-UHFFFAOYSA-L,-0.840017595
"1-piperazinecarboxylic acid, 4,4'-methylenebis-,",,CCOC(=O)N1CCN(CC1)CN2CCN(CC2)C(=O)OCC,UOCUDGZQFFDOMM-UHFFFAOYSA-N,-0.8443
"2-pyrrolidinone, 5-methyl-1-phenyl-",,CC1CCC(=O)N1c2ccccc2,VKSABXHARNALNR-UHFFFAOYSA-N,-0.8457
aminothiourea,,NNC(N)=S,BRWIZMBXBAOCCF-UHFFFAOYSA-N,-0.845760907
ethanethiol,,CCS,DNJIEGIFACGWOD-UHFFFAOYSA-N,-0.84591656
safranine t,,[Cl-].Cc1cc2nc3c(C)c(N)ccc3[n+](c4ccccc4)c2cc1N,QRYAEWIQIBAZOJ-UHFFFAOYSA-N,-0.8462
Pirenzepine,CAS28797-61-7,CN1CCN(CC(=O)N2c3ccccc3C(=O)Nc3cccnc32)CC1.Cl.Cl,FFNMBRCFFADNAO-UHFFFAOYSA-N,-0.85
succinyl peroxide,,OC(=O)CCC(=O)OOC(=O)CCC(O)=O,MKTOIPPVFPJEQO-UHFFFAOYSA-N,-0.8471
"acetic acid, (cyclopentyloxy)-",,OC(=O)COC1CCCC1,JPUGGGCNNKXYCU-UHFFFAOYSA-N,-0.8471
dimetan,,CN(C)C(=O)OC1=CC(=O)CC(C)(C)C1,ITEQSCBLCCNACE-UHFFFAOYSA-N,-0.8477
2-propylpiperidine,,CCC[C@H]1CCCCN1,NDNUANOUGZGEPO-QMMMGPOBSA-N,-0.8493
"acetamide, n-[2-(benzoyloxy)ethyl]-n-methyl-",,CN(CCOC(=O)c1ccccc1)C(C)=O,XPLCQMPBJPQJNU-UHFFFAOYSA-N,-0.8494
cyclohexanone oxime,,ON=C1CCCCC1,VEZUQRBDRNJBJY-UHFFFAOYSA-N,-0.849572956
"2,5-dihydroxybenzoic   acid;  gentisic  acid",,OC(=O)C1=CC(=CC=C1O)O,WXTMDXOMEHJXQO-UHFFFAOYSA-N,-0.85
salicin,,OCC1OC(OC2=CC=CC=C2CO)C(O)C(O)C1O,NGFMICBWJRZIBI-UHFFFAOYSA-N,-0.85
3-ethyl-3-pentanol,,OC(CC)(CC)CC,XKIRHOWVQWCYBT-UHFFFAOYSA-N,-0.85
pentanal,,CCCCC=O,HGBOYTHUEUWSSQ-UHFFFAOYSA-N,-0.85
"5,5-dimethyl-2-phenyl-3H-imidazol-4-one",,CC1(C)N=C(C2=CC=CC=C2)NC1=O,DEXSTSSPGXRLRY-UHFFFAOYSA-N,-0.85
2-[[2-amino-3-(1H-indol-3-yl)propanoyl]amino]acetic acid,,NC(CC1=CNC2=C1C=CC=C2)C(=O)NCC(=O)O,UYKREHOKELZSPB-UHFFFAOYSA-N,-0.85
"2,3-dimethyl-3-pentanol",,CCC(C)(O)C(C)C,RFZHJHSNHYIRNE-UHFFFAOYSA-N,-0.8504
4-methylpentan-2-one,,CC(C)CC(C)=O,NTIZESTWPVYFNL-UHFFFAOYSA-N,-0.851479539
"2-methoxy-3,4-dihydro-2H-pyran",,COC1CCC=CO1,XCYWUZHUTJDTGS-UHFFFAOYSA-N,-0.853333105
2-methylaniline,,Cc1ccccc1N,RNVCVTLRINQCPJ-UHFFFAOYSA-N,-0.853925235
salicin,,OC[C@H]1O[C@@H](Oc2ccccc2CO)[C@H](O)[C@@H](O)[C@@H]1O,NGFMICBWJRZIBI-UJPOAAIJSA-N,-0.8547
"disodium 3-[(E)-2-[4-(1-{4-[(E)-2-(1,7-dihydroxy-3-sulfonatonaphthalen-2-yl)diazen-1-yl]-3-methylphenyl}cyclohexyl)-2-methylphenyl]diazen-1-yl]-4,6-dihydroxynaphthalene-2-sulfonate",,[Na+].[Na+].Cc1cc(ccc1NNC2=C(C=C3C=CC(=O)C=C3C2=O)[S]([O-])(=O)=O)C4(CCCCC4)c5ccc(NNC6=C(C=C7C=CC(=O)C=C7C6=O)[S]([O-])(=O)=O)c(C)c5,FEGFQZKEEWPHPY-UHFFFAOYSA-L,-0.854788461
1-nitroso-1-methylurea,,CN(N=O)C(N)=O,ZRKWMRDKSOPRRS-UHFFFAOYSA-N,-0.8548
silanedione magnesium sodium hydrofluoride,,F.[Na].[MgH2].O=[Si]=O,DESJYLHXGYGZJG-UHFFFAOYSA-N,-0.856665127
ethyl vinyl ether,,CCOC=C,FJKIXWOMBXYWOQ-UHFFFAOYSA-N,-0.858
Levofloxacin,CAS100986-85-4,CC1COc2c(N3CCN(C)CC3)c(F)cc3c(=O)c(C(=O)O)cn1c23,GSDSWSVVBLHKDQ-UHFFFAOYSA-N,-0.86
"d-gluconic acid, 2-amino-2-deoxy-",,NC(C(O)C(O)C(O)CO)C(O)=O,UFYKDFXCZBTLOO-UHFFFAOYSA-N,-0.859
"1-(2-hydroxyethyl)-2,2,6,6-tetramethylpiperidin-4-ol",,CC1(C)CC(O)CC(C)(C)N1CCO,STEYNUVPFMIUOY-UHFFFAOYSA-N,-0.859820553
pent-2-enenitrile,,CC\C=C/C#N,ISBHMJZRKAFTGE-ARJAWSKDSA-N,-0.859899212
n-acetyl-6-deoxyacyclovir,,CC(=O)NC1=NC2=C(C=N1)N=C[N]2COCCO,LPOUIKBMWDULCN-UHFFFAOYSA-N,-0.86
Salicylaldehyde,,O=Cc(c(O)ccc1)c1,SMQUZDBALVYZAC-UHFFFAOYSA-N,-0.86
"2-[4-[(4-methoxyphenyl)methyl]-2,5-dioxoimidazolidin-1-yl]propanoic acid",,COC1=CC=C(CC2NC(=O)N(C(C)C(=O)O)C2=O)C=C1,HCTFEPDEGBYVHP-UHFFFAOYSA-N,-0.86
"butanedioic acid, 2,3-diethyl-",,CCC(C(CC)C(O)=O)C(O)=O,KJXMXCRSMLOXBM-UHFFFAOYSA-N,-0.8608
"butanoic acid, 2-[(aminoiminomethyl)amino]-",,CCC(NC=NN)C(O)=O,YWCQQPRYWSJMLI-UHFFFAOYSA-N,-0.8608
4-ethoxyaniline,,CCOc1ccc(N)cc1,IMPPGHMHELILKG-UHFFFAOYSA-N,-0.860835326
"propanoic acid, 2-(1-oxopropoxy)-, methyl ester",,CCC(=O)OC(C)C(=O)OC,QCHIRICIDKIMSH-UHFFFAOYSA-N,-0.8622
"1,3-dihydro-2-benzofuran-1-one",,O=C1OCc2ccccc12,WNZQDUSMALZDQF-UHFFFAOYSA-N,-0.862721053
2-methylcyclohexanol,,CC1CCCCC1O,NDVWOBYBJYUSMF-UHFFFAOYSA-N,-0.864495868
potassium nonafluorobutane-1-sulfonate,,[K+].[O-][S](=O)(=O)C(F)(F)C(F)(F)C(F)(F)C(F)(F)F,LVTHXRLARFLXNR-UHFFFAOYSA-M,-0.864516218
methylene blue,,[Cl-].CN(C)c1ccc2nc3ccc(cc3[s+]c2c1)N(C)C,CXKWCBBOMKCUKX-UHFFFAOYSA-M,-0.8655
"2,2,3-trichloro-1,1-butanediol",,CC(Cl)C(Cl)(Cl)C(O)O,QVYLNOUOIXTUGA-UHFFFAOYSA-N,-0.8666
aldicarb sulfoxide,,CNC(=O)O\N=C\C(C)(C)[S](C)=O,BXPMAGSOWXBZHS-WEVVVXLNSA-N,-0.8673
Propantheline Bromide,CAS50-34-0,CC(C)[N+](C)(CCOC(=O)C1c2ccccc2Oc2ccccc21)C(C)C.[Br-],XLBIBBZXLMYSFF-UHFFFAOYSA-M,-0.87
Trimetrexate Glucuronate,CAS82952-64-5,COc1cc(NCc2ccc3nc(N)nc(N)c3c2C)cc(OC)c1OC.O=C(O)[C@H]1OC(O)[C@H](O)[C@@H](O)[C@@H]1O,DQOGWKZQQBYYMW-HVPGLEETSA-N,-0.87
7-Chloropteridine,,c1c(Cl)nc2cncnc2n1,YAVYBQFUSWPIQK-UHFFFAOYSA-N,-0.87
"N,N-Dimethyl-2-(phenylsulfonyl)propanamide",,CC(C(=O)N(C)C)S(=O)(=O)C1=CC=CC=C1,OFPHVMUTNZBKLX-UHFFFAOYSA-N,-0.87
"butanoic acid, 2,2-dibromo-",,CCC(Br)(Br)C(O)=O,QMHNFKJHFYCNRW-UHFFFAOYSA-N,-0.8722
Nefopam,CAS13669-70-0,CN1CCOC(c2ccccc2)c2ccccc2C1.Cl,CNNVSINJDJNHQK-UHFFFAOYSA-N,-0.87
"cyclohexane-1,4-dicarboxylic acid",,OC(=O)C1CCC(CC1)C(O)=O,PXGZQGDTEZPERC-UHFFFAOYSA-N,-0.872370724