Name,ID,SMILES,inchi,LogS
t-butylphenyl diphenyl phosphate,,CC(C)(C)c1ccc(O[P](=O)(Oc2ccccc2)Oc3ccccc3)cc1,ULGAVXUJJBOWOD-UHFFFAOYSA-N,-5.0774
"4-methoxy-3,3'-dimethylbenzophenone",,COc1ccc(cc1C)C(=O)c2cccc(C)c2,BWPYBAJTDILQPY-UHFFFAOYSA-N,-5.0797
5-amino-2-methoxy-sulfabenzene,,COC1=C(N[S](=O)(=O)C2=CC=C(N)C=C2)C=C(N)C=C1,XNBPWMJDOGVRNA-UHFFFAOYSA-N,-5.08
"4-[(10,13-dimethyl-3-oxo-1,2,6,7,8,9,11,12,14,15,16,17-dodecahydrocyclopenta[a]phenanthren-17-yl)oxy]-4-oxobutanoic acid",,CC12CCC(=O)C=C1CCC1C2CCC2(C)C(OC(=O)CCC(=O)O)CCC12,CJQNBXFUHQZFOE-UHFFFAOYSA-N,-5.08
"6-amino-3-methylfuro[3,2-g]chromen-7-one",,CC1=COC2=CC3=C(C=C(N)C(=O)O3)C=C12,ZULUAOGOHQKSOP-UHFFFAOYSA-N,-5.08
2-Methylheptane,,CCCCCC(C)C,JVSWJIKNEAIKJW-UHFFFAOYSA-N,-5.08
,CHEMBL1783281,CCCNC(=O)c1nnc2c(cccc2c1N)c3cc(C)ccc3OC,GTGGDPMSPFTXEJ-UHFFFAOYSA-N,-5.080629655
phosalone,,CCO[P](=S)(OCC)SCN1C(=O)Oc2cc(Cl)ccc12,IOUNQDKNJZEDEP-UHFFFAOYSA-N,-5.0813
"2,2'-dichlorobiphenyl",,Clc1ccccc1c2ccccc2Cl,JAYCNKDKIKZTAF-UHFFFAOYSA-N,-5.0813
dihexyl adipate,,CCCCCCOC(=O)CCCCC(=O)OCCCCCC,HHECSPXBQJHZAF-UHFFFAOYSA-N,-5.082600349
"2,2,4,4-Tetramethyl-7-oxa-3,20-diazadispiro(5.1.11.2)heneicosan-21-one",,CC1(C)CC2(CC(C)(C)N1)OC3(CCCCCCCCCCC3)NC2=O,IVVLFHBYPHTMJU-UHFFFAOYSA-N,-5.084664439
Sulindac Sulfide,CAS32004-67-4,CSc1ccc(/C=C2/C(C)=C(CC(=O)O)c3cc(F)ccc32)cc1,LFWHFZJPXXOYNR-MFOYZWKCSA-N,-5.08
,CHEMBL1783258,CCNC(=O)c1nnc2c(cccc2c1N)c3cc(OC)ccc3OC,WFCALMPXVKUYLO-UHFFFAOYSA-N,-5.085894631
,CHEMBL1631010,C[C@H](Oc1ccc(cc1C(=O)N2Cc3ccc(cc3C2)c4ccccc4)S(=O)(=O)C)C(F)(F)F,JOLOIRNKELNRQF-INIZCTEOSA-N,-5.087357351
"N-phenylaniline; 2,4,4-trimethylpent-1-ene",,CC(=C)CC(C)(C)C.N(c1ccccc1)c2ccccc2,NRBLRTXFXBXILY-UHFFFAOYSA-N,-5.087662615
"tetrachlorocyclohexa-2,5-diene-1,4-dione",,ClC1=C(Cl)C(=O)C(=C(Cl)C1=O)Cl,UGNWTBMOAKPKBL-UHFFFAOYSA-N,-5.089686144
prazosin,,COC1=CC2=C(C=C1OC)C(=NC(=N2)N3CCN(CC3)C(=O)C4=CC=CO4)N,IENZQIKPVFGBNW-UHFFFAOYSA-N,-5.09
"4,6-dimethyl-8,9,10,11-tetrahydro-[1]benzoxolo[2,3-h]chromen-2-one",,CC1=CC(=O)OC2=C1C=C(C)C1=C2C2=C(CCCC2)O1,PDLIOFGQZOFSJT-UHFFFAOYSA-N,-5.09
9-allyl-2-anilino-purin-6-ol,,C=CCN1C=NC2=C1N=C(NC1=CC=CC=C1)NC2=O,XNNTZLFLHGTMNW-UHFFFAOYSA-N,-5.09
Cilostazol,CAS73963-72-1,O=C1CCc2cc(OCCCCc3nnnn3C3CCCCC3)ccc2N1,RRGUKTPIGVIEKM-UHFFFAOYSA-N,-5.09
Glyburide (Glibenclamide),CAS10238-21-8,COc1ccc(Cl)cc1C(=O)NCCc1ccc(S(=O)(=O)NC(=O)NC2CCCCC2)cc1,ZNNLBTZKUZBEKO-UHFFFAOYSA-N,-5.09
1-methyl-3-oxoandrostan-17-yl acetate,,C[C@H]1CC(=O)C[C@@H]2CC[C@H]3[C@@H]4CC[C@H](OC(C)=O)[C@@]4(C)CC[C@@H]3[C@@]12C,ZWCXCOXAEJHAHA-FVFBOZGUSA-N,-5.092558995
Docetaxel,CAS114977-28-5,CC(=O)O[C@@]12CO[C@@H]1C[C@H](O)[C@@]1(C)C(=O)[C@H](O)C3=C(C)[C@@H](OC(=O)[C@H](O)[C@@H](NC(=O)OC(C)(C)C)c4ccccc4)C[C@@](O)([C@@H](OC(=O)c4ccccc4)[C@@H]12)C3(C)C,ZDZOTLJHXYCWBA-VCVYQWHSSA-N,-5.09
"2,3,5,6-tetrachloronitrobenzene",,[O-][N+](=O)c1c(Cl)c(Cl)cc(Cl)c1Cl,XQTLDIFVVHJORV-UHFFFAOYSA-N,-5.0963
,CHEMBL1783249,CCCNC(=O)c1nnc2c(cccc2c1N)c3cccc(C)c3,LCNUELABLMGVTP-UHFFFAOYSA-N,-5.096603166
,CHEMBL2335892,COCCC(=O)NC(C)c1ccc(Nc2ncc3cc(ccc3n2)c4ccncc4)cc1,IDMVTOZYZLLLTD-UHFFFAOYSA-N,-5.096605977
,CHEMBL3632765,Nc1nc2nc(CC3CCCCC3)ncc2c(N)c1C#N,IKSIEIXIIKHCFA-UHFFFAOYSA-N,-5.096631964
dibenzothiophene,,s1c2ccccc2c3ccccc13,IYYZUPMFVPLQIF-UHFFFAOYSA-N,-5.0981
titanium(4+) ion zirconium(4+) ion lead(2+) ion pentaoxidandiide,,[O--].[O--].[O--].[O--].[O--].[Ti+4].[Zr+4].[Pb++],HFGPZNIAWCZYJU-UHFFFAOYSA-N,-5.098222153
"(3aR,5aS,9aS,9bR)-3a,6,6,9a-tetramethyl-dodecahydronaphtho[2,1-b]furan",,CC1(C)CCC[C@@]2(C)[C@H]1CC[C@@]3(C)OCC[C@H]23,YPZUZOLGGMJZJO-LQKXBSAESA-N,-5.099487786
"3a,6,6,9a-tetramethyl-dodecahydronaphtho[2,1-b]furan",,CC1(C)CCCC2(C)C1CCC3(C)OCCC23,YPZUZOLGGMJZJO-UHFFFAOYSA-N,-5.099487786
,CHEMBL1783264,COc1ccc(OC)c(c1)c2cccc3c(N)c(nnc23)C(=O)NC4(C)CCC4,JUELOSCDPSWDKO-UHFFFAOYSA-N,-5.102079378
hydrate iron potassium,,[O--].[O--].[K+].[Fe+3],UMPKMCDVBZFQOK-UHFFFAOYSA-N,-5.103601915
"4-(2,3,4-trihydroxybenzoyl)phenyl 5-oxo-6-[(1E)-tetraaza-1,3-dien-1-yl]-5,8-dihydronaphthalene-1-sulfonate",,Oc1ccc(c(O)c1O)C(=O)c2ccc(O[S](=O)(=O)c3cccc4C(=O)C(=CCc34)N=NN=N)cc2,WVRFNJXNBZHDGZ-UHFFFAOYSA-N,-5.105290731
,CHEMBL1783275,COc1ccc(OC)c(c1)c2c(F)ccc3c(N)c(nnc23)C(=O)NC(C)C,MVMSIAOIXGSGIK-UHFFFAOYSA-N,-5.1076339
dineodymium(3+) ion tricarbonate,,[Nd+3].[Nd+3].[O-]C([O-])=O.[O-]C([O-])=O.[O-]C([O-])=O,UTWHRPIUNFLOBE-UHFFFAOYSA-H,-5.108420439
tebufenpyrad,,CCc1nn(C)c(C(=O)NCc2ccc(cc2)C(C)(C)C)c1Cl,ZZYSLNWGKKDOML-UHFFFAOYSA-N,-5.1086
2-chloro-n1-(2-chlorophenyl)sulfanilamide,,NC1=CC(=C(C=C1)[S](=O)(=O)NC2=CC=CC=C2Cl)Cl,WLGLMOOOFGAYSX-UHFFFAOYSA-N,-5.11
"3-hydroxy-13-methyl-7,8,9,11,12,14,15,16-octahydro-6H-cyclopenta[a]phenanthren-17-one",,CC12CCC3C4=C(C=C(O)C=C4)CCC3C1CCC2=O,DNXHEGUUPJUMQT-UHFFFAOYSA-N,-5.11
"N-(4-amino-3-methoxy-9,10-dioxo-9,10-dihydroanthracen-1-yl)-4-methylbenzene-1-sulfonamide",,COc1cc(N[S](=O)(=O)c2ccc(C)cc2)c3C(=O)c4ccccc4C(=O)c3c1N,BXIGAWRFDMDLTL-UHFFFAOYSA-N,-5.112570051
dibutyltin bis(2-ethylhexanoate),,CCCC[Sn++]CCCC.CCCCC(CC)C([O-])=O.CCCCC(CC)C([O-])=O,GPDWNEFHGANACG-UHFFFAOYSA-L,-5.113404326
"2,5-bis(tert-butylperoxy)-2,5-dimethylhex-3-yne",,CC(C)(C)OOC(C)(C)C#CC(C)(C)OOC(C)(C)C,ODBCKCWTWALFKM-UHFFFAOYSA-N,-5.114568529
cobalt,,[Co],GUTLYIVDDKVIGB-UHFFFAOYSA-N,-5.117146036
,CHEMBL2347414,Cn1nc(c2cnc3[nH]cc(C(=O)N[C@@]4(C)C[C@H](N)C4)c3n2)c5ccc(F)cc15,BUMHWUDGGPIPAG-YLCJPNJKSA-N,-5.117460594
AZD7325,CHEMBL1783282,CCCNC(=O)c1nnc2c(cccc2c1N)c3c(F)cccc3OC,KYDURMHFWXCKMW-UHFFFAOYSA-N,-5.118903474
triamcinolone hexacetonide,,CC(C)(C)CC(=O)OCC(=O)C12OC(C)(C)OC1CC3C4CCC5=CC(=O)C=CC5(C)C4(F)C(O)CC23C,TZIZWYVVGLXXFV-UHFFFAOYSA-N,-5.12
"salicylanilide, 4'-chloro-5-nitro-",,Oc1ccc(cc1C(=O)Nc2ccc(Cl)cc2)[N+]([O-])=O,CDYKTFABNOULII-UHFFFAOYSA-N,-5.122
"3-[(3-sulfanylpropanoyl)oxy]-2,2-bis({[(3-sulfanylpropanoyl)oxy]methyl})propyl 3-sulfanylpropanoate",,SCCC(=O)OCC(COC(=O)CCS)(COC(=O)CCS)COC(=O)CCS,JOBBTVPTPXRUBP-UHFFFAOYSA-N,-5.123168748
"methyl 3-(3,5-di-tert-butyl-4-hydroxyphenyl)propanoate",,COC(=O)CCc1cc(c(O)c(c1)C(C)(C)C)C(C)(C)C,PXMJCECEFTYEKE-UHFFFAOYSA-N,-5.123582907
chlorphenoxamide,,OCCN(Cc1ccc(Oc2ccc(cc2)[N+]([O-])=O)cc1)C(=O)C(Cl)Cl,ODCUSWJXZDHLKV-UHFFFAOYSA-N,-5.1241
triamcinolone hexacetonide,,CC(C)(C)CC(=O)OCC(=O)[C@@]12OC(C)(C)O[C@@H]1C[C@H]3[C@@H]4CCC5=CC(=O)C=C[C@]5(C)[C@@]4(F)[C@@H](O)C[C@]23C,TZIZWYVVGLXXFV-FLRHRWPCSA-N,-5.1244
oryzalin;  surflan,,CCCN(CCC)C1=C(C=C(C=C1[N+]([O-])=O)[S](N)(=O)=O)[N+]([O-])=O,UNAHYJYOSSSJHH-UHFFFAOYSA-N,-5.13
"2,4,5,6-Tetrachloroanisole  ",,COC1=C(Cl)C(Cl)=C(Cl)C=C1Cl,ITXDBGLYYSJNPK-UHFFFAOYSA-N,-5.13
aluminium(3+) ion magnesium(2+) ion sodium tris(oxosilanebis(olate)),,[Na+].[Mg++].[Al+3].[O-][Si]([O-])=O.[O-][Si]([O-])=O.[O-][Si]([O-])=O,RILYHWBPLWVCBV-UHFFFAOYSA-N,-5.130514687
"benzene, 1,2,4,5-tetrachloro-3-methoxy-",,COc1c(Cl)c(Cl)cc(Cl)c1Cl,WMMFIDNWZNCBCT-UHFFFAOYSA-N,-5.1307
2-(dimethylamino)-2-[(4-methylphenyl)methyl]-1-[4-(morpholin-4-yl)phenyl]butan-1-one,,CCC(Cc1ccc(C)cc1)(N(C)C)C(=O)c2ccc(cc2)N3CCOCC3,PUBNJSZGANKUGX-UHFFFAOYSA-N,-5.133233152
"(1,3-benzothiazol-2-ylsulfanyl)(tert-butyl)amine",,CC(C)(C)NSc1sc2ccccc2n1,IUJLOAKJZQBENM-UHFFFAOYSA-N,-5.136722389
fludioxonil,,FC1(F)Oc2cccc(c2O1)c3c[nH]cc3C#N,MUJOIMFVNIBMKC-UHFFFAOYSA-N,-5.1395
DEF,,O=P(SCCCC)(SCCCC)SCCCC,ZOKXUAHZSKEQSS-UHFFFAOYSA-N,-5.14
"3,7-dimethyloct-6-en-1-yl butyrate",,CCCC(=O)OCCC(C)CCC=C(C)C,XQPZQXTWYZAXAK-UHFFFAOYSA-N,-5.142612081
1-cyclohexyl-3-[4-({4-[(cyclohexylcarbamoyl)amino]phenyl}methyl)phenyl]urea,,O=C(NC1CCCCC1)Nc2ccc(Cc3ccc(NC(=O)NC4CCCCC4)cc3)cc2,SGXPOLBQSKXTKY-UHFFFAOYSA-N,-5.142667396
copper(II) carbonate--copper(II) hydroxide (1:1),,[OH-].[OH-].[Cu++].[Cu++].[O-]C([O-])=O,ZMMDPCMYTCRWFF-UHFFFAOYSA-J,-5.143219117
pentachlorobenzyl alcohol,,OCc1c(Cl)c(Cl)c(Cl)c(Cl)c1Cl,RVCKCEDKBVEEHL-UHFFFAOYSA-N,-5.1467
cafenstrole,,CCN(CC)C(=O)n1cnc(n1)[S](=O)(=O)c2c(C)cc(C)cc2C,HFEJHAAIJZXXRE-UHFFFAOYSA-N,-5.1467
"methanesulfonamide, n-phenyl-n-((1,1,2,2-tetrach",,C[S](=O)(=O)N(SC(Cl)(Cl)C(F)(Cl)Cl)c1ccccc1,SVIKNKPDPGCMAE-UHFFFAOYSA-N,-5.1485
"2,6,10,15,19,23-hexamethyltetracosane",,CC(C)CCCC(C)CCCC(C)CCCCC(C)CCCC(C)CCCC(C)C,PRAKJMSDJKAYCZ-UHFFFAOYSA-N,-5.14904043
glycocholic acid,,C[C@H](CCC(=O)NCC(O)=O)[C@H]1CC[C@H]2[C@@H]3[C@H](O)C[C@@H]4C[C@H](O)CC[C@]4(C)[C@H]3C[C@H](O)[C@]12C,RFDAIACWWDREDC-FRVQLJSFSA-N,-5.1495
clodinafop-propargyl,,CC(OC1=CC=C(OC2=NC=C(Cl)C=C2F)C=C1)C(=O)OCC#C,JBDHZKLJNAIJNC-UHFFFAOYSA-N,-5.15
Glycocholic_Acid,,O=C(NCC(=O)O)CCC(C(C(C(C(C(C(C(C1)CC(O)C2)(C2)C)C3)C1O)C4)(C3O)C)C4)C,RFDAIACWWDREDC-UHFFFAOYSA-N,-5.15
2-methylundecanal,,CCCCCCCCCC(C)C=O,NFAVNWJJYQAGNB-UHFFFAOYSA-N,-5.151636178
primisulfuron-methyl,,COC(=O)c1ccccc1[S](=O)(=O)NC(=O)Nc2nc(OC(F)F)cc(OC(F)F)n2,ZTYVMAQSHCZXLF-UHFFFAOYSA-N,-5.152
RTI 23,,CCN2c1cc(OC)cc(C)c1NC(=O)c3cccnc23 ,PVVKNINYCJVIFZ-UHFFFAOYSA-N,-5.153
,CHEMBL1209587,Clc1cccc(c1)S(=O)(=O)NCC(N2CCCCCC2)c3ccccc3,SZQOWBGHVDMDJT-UHFFFAOYSA-N,-5.154008587
,CHEMBL1209738,O=S(=O)(NCC(N1CCCCCC1)c2ccccc2)c3ccc(cc3)C#N,HDTQXGDKHLQISV-UHFFFAOYSA-N,-5.15451308
,CHEMBL1682798,O=C1NCc2cc(ccc12)C#Cc3ccccc3,CMSWIWJBEZTKAF-UHFFFAOYSA-N,-5.15457427
,CHEMBL1348198,O=C1CCOc2cc(OCc3ccccc3)ccc12,MLQFOEOUNIRULR-UHFFFAOYSA-N,-5.15458467
,CHEMBL1682817,O=C1CCOc2cc(OCc3cccc(c3)C#N)ccc12,YPKWTHRFOIWXKW-UHFFFAOYSA-N,-5.154590139
,CHEMBL2335888,CN(C(=O)C)c1ccc(Nc2ncc3cc(ccc3n2)c4ccncc4)cc1,FDZFHPSXTIIWQD-UHFFFAOYSA-N,-5.15459497
glycochenodeoxycholic acid,,C[C@H](CCC(=O)NCC(O)=O)[C@H]1CC[C@H]2[C@@H]3[C@H](O)C[C@@H]4C[C@H](O)CC[C@]4(C)[C@H]3CC[C@]12C,GHCZAUBVMUEKKP-GYPHWSFCSA-N,-5.1546
,CHEMBL2335876,COCCNC(=O)c1ccc(Nc2ncc3cc(ccc3n2)c4ccncc4)cc1C,XFIMTFTVMLQKMX-UHFFFAOYSA-N,-5.154602687
,CHEMBL2164387,FC(F)(F)c1ccc(CNC(=O)C2N(CCc3ccccn3)C(=O)c4ccccc24)cc1,TTZMPKHSTNMDRT-UHFFFAOYSA-N,-5.154625897
,CHEMBL2164374,CC(C)(C)OC(=O)N1CCC(CC1)N2C(C(=O)NCc3ccc(OC(F)(F)F)cc3)c4ccccc4C2=O,QGNZOANCXQXMOT-UHFFFAOYSA-N,-5.15463632
trizinc(2+) ion diphosphate,,[Zn++].[Zn++].[Zn++].[O-][P]([O-])([O-])=O.[O-][P]([O-])([O-])=O,LRXTYHSAJDENHV-UHFFFAOYSA-H,-5.155347286
diisopropyl sebacate,,CC(C)OC(=O)CCCCCCCCC(=O)OC(C)C,XFKBBSZEQRFVSL-UHFFFAOYSA-N,-5.155961214
"octadecane-1,12-diol",,CCCCCCC(O)CCCCCCCCCCCO,KHLCTMQBMINUNT-UHFFFAOYSA-N,-5.156094631
"Alcohols, C12-15-branched and linear",,CCCCC[C@H](CCC)CCCO,YJIYBYOWBOONOU-LBPRGKRZSA-N,-5.156360408
3-methylheptane,,CCCCC(C)CC,LAIUFBWHERIJIH-UHFFFAOYSA-N,-5.1591
"N-(2-oxo-2,3-dihydropyrimidin-4-yl)benzamide",,O=C1NC(=CC=N1)NC(=O)c2ccccc2,XBDUZBHKKUFFRH-UHFFFAOYSA-N,-5.159680215
"methyl 5,9-dimethyl-7-oxopyrano[3,2-f][1]benzoxole-2-carboxylate",,COC(=O)C1=CC2=CC3=C(OC(=O)C=C3C)C(C)=C2O1,QHXFAIJMLLYLES-UHFFFAOYSA-N,-5.16
8-methyl-2-morpholin-4-yl-7-phenylmethoxychromen-4-one,,CC1=C(OCC2=CC=CC=C2)C=CC2=C1OC(N1CCOCC1)=CC2=O,LAXBVILKGSPZJK-UHFFFAOYSA-N,-5.16
leucopterin,,NC1=NC(=O)C2=C(N1)NC(=O)C(=O)N2,SFLOGVVDXPCWGR-UHFFFAOYSA-N,-5.1655
Acid Black 52,,[Na+].[Na+].[Cr].[Cr].Oc1ccc2ccccc2c1N\N=C/3C(=O)C=C(c4cc(ccc34)[N+]([O-])=O)[S](O)(=O)=O.Oc5ccc6ccccc6c5N\N=C/7C(=O)C=C(c8cc(ccc78)[N+]([O-])=O)[S]([O-])(=O)=O.Oc9ccc%10ccccc%10c9N\N=C/%11C(=O)C=C(c%12cc(ccc%11%12)[N+]([O-])=O)[S]([O-])(=O)=O,YCNSFOJOGIRLCD-XGVRSJHNSA-L,-5.166184625
galaxolide,,CC1COCc2cc3c(cc12)C(C)(C)C(C)C3(C)C,ONKNPOPIGWHAQC-UHFFFAOYSA-N,-5.1693
Di-p-xylylene,,C1Cc2ccc(CCc3ccc1cc3)cc2,OOLUVSIJOMLOCB-UHFFFAOYSA-N,-5.169478497
canrenoic  acid,,CC12CCC(=O)C=C1C=CC3C2CCC4(C)C3CCC4(O)CCC(O)=O,PBKZPPIHUVSDNM-UHFFFAOYSA-N,-5.17
2-[(3-carboxy-2-oxidonaphthalen-1-yl)diazenyl]-4-chloro-5-methylbenzenesulfonate;manganese(2+),,[H+].[Mn++].Cc1cc(c(cc1Cl)N=Nc2c([O-])c(cc3ccccc23)C([O-])=O)[S]([O-])(=O)=O,FXKOYCHIRMCIOR-UHFFFAOYSA-L,-5.170401078
"3-({3-carboxy-1,4,5,6,7,7-hexachlorobicyclo[2.2.1]hept-5-ene-2-carbonyloxy}carbonyl)-1,4,5,6,7,7-hexachlorobicyclo[2.2.1]hept-5-ene-2-carboxylic acid",,ClC1=C(Cl)C2(Cl)C3C(C(=O)OC3=O)C1(Cl)C2(Cl)Cl,FLBJFXNAEMSXGL-UHFFFAOYSA-N,-5.171234853
[(1E)-2-(diethoxymethyl)hept-1-en-1-yl]benzene,,CCCCC\C(=C/c1ccccc1)C(OCC)OCC,MPKOLWUWOADQCX-BMRADRMJSA-N,-5.172056518
2-aminoanthracene,,Nc1ccc2cc3ccccc3cc2c1,YCSBALJAGZKWFF-UHFFFAOYSA-N,-5.1722
1-chlorooctane,,CCCCCCCCCl,CNDHHGUSRIZDSL-UHFFFAOYSA-N,-5.172243789
oxoyttrium,,O=[Y],APUGIHICMSAKGR-UHFFFAOYSA-N,-5.175698148
3-hydroxy-N-(2-methoxyphenyl)naphthalene-2-carboxamide,,[Na+].COc1ccccc1NC(=O)c2cc3ccccc3cc2[O-],OXXQDUUQLWQUEX-UHFFFAOYSA-M,-5.176510186
bromothymol  blue,,CC(C)C1=C(Br)C(=C(C)C=C1C2(O[S](=O)(=O)C3=C2C=CC=C3)C4=CC(=C(O)C(=C4C(C)C)Br)C)O,CJBMVMMYECULNQ-UHFFFAOYSA-N,-5.18
hexachlorocyclopentadiene,,ClC1=C(Cl)C(Cl)(Cl)C(=C1Cl)Cl,VUNCWTMEJYMOOR-UHFFFAOYSA-N,-5.1805
fentrazamide,,CCN(C1CCCCC1)C(=O)N2N=NN(C2=O)c3ccccc3Cl,LLQPHQFNMLZJMP-UHFFFAOYSA-N,-5.1821
"4-(3,4,5,6-tetramethyloctan-2-yl)phenol",,CCC(C)C(C)C(C)CCc1ccc(O)cc1,AOOKHLGAVNECET-UHFFFAOYSA-N,-5.182405388
m-terphenyl,,c1ccc(cc1)c2cccc(c2)c3ccccc3,YJTKZCDBKVTVBY-UHFFFAOYSA-N,-5.183
testosterone acetate,,CC(=O)OC3CCC4C2CCC1=CC(=O)CCC1(C)C2CCC34C ,DJPZSBANTAQNFN-UHFFFAOYSA-N,-5.184
"7-{[4,5-dihydroxy-6-(hydroxymethyl)-3-[(3,4,5-trihydroxy-6-methyloxan-2-yl)oxy]oxan-2-yl]oxy}-5-hydroxy-2-(3-hydroxy-4-methoxyphenyl)-3,4-dihydro-2H-1-benzopyran-4-one",,COc1ccc(cc1O)[C@@H]2CC(=O)c3c(O)cc(O[C@@H]4O[C@H](CO)[C@@H](O)[C@H](O)[C@H]4O[C@@H]5O[C@@H](C)[C@H](O)[C@@H](O)[C@H]5O)cc3O2,ARGKVCXINMKCAZ-UZRWAPQLSA-N,-5.185848833
N-(2-ethoxyphenyl)-3-hydroxynaphthalene-2-carboxamide,,CCOc1ccccc1NC(=O)c2cc3ccccc3cc2O,NXIGDUAONGBUKR-UHFFFAOYSA-N,-5.186601809
undec-3-ene,,CCCCCCC\C=C\CC,SDTYFWAQLSIEBH-FNORWQNLSA-N,-5.188357482
"butyl 4,4-bis(tert-butylperoxy)pentanoate",,CCCCOC(=O)CCC(C)(OOC(C)(C)C)OOC(C)(C)C,BXIQXYOPGBXIEM-UHFFFAOYSA-N,-5.189881345
Norgestrel,,CCC12CCC3C(CCC4=CC(=O)CCC34)C1CCC2(O)C#C,WWYNJERNGUHSAO-UHFFFAOYSA-N,-5.19
kresoxim-methyl,,CO/N=C(C(=O)OC)/C1=C(COC2=C(C)C=CC=C2)C=CC=C1,ZOTBXTZVPHCKPN-ZPHPHTNESA-N,-5.19
bromofenoxim,,OC1=C(Br)C=C(\C=N\OC2=C(C=C(C=C2)[N+]([O-])=O)[N+]([O-])=O)C=C1Br,XTFNPKDYCLFGPV-OMCISZLKSA-N,-5.19
"danthron;  1,8-dihydroxyanthraquinone",,OC1=CC=CC2=C1C(=O)C3=C(C=CC=C3O)C2=O,QBPFLULOKWLNNW-UHFFFAOYSA-N,-5.19
Methoprene,,COC(C)(C)CCCC(C)CC=CC(C)=CC(=O)OC(C)C,NFGXHKASABOEEW-UHFFFAOYSA-N,-5.19
musk ketone,,CC(=O)c1c(C)c(c(c(c1C)[N+]([O-])=O)C(C)(C)C)[N+]([O-])=O,WXCMHFPAUCOJIG-UHFFFAOYSA-N,-5.1901
phenanthrene,,c1ccc2c(c1)ccc3ccccc23,YNPNZTXNASCQKK-UHFFFAOYSA-N,-5.1903
zolone,,CCO[P](=S)(OCC)SCN1C(=O)Oc2ccccc12,YAAFKGCBOCRHIF-UHFFFAOYSA-N,-5.1905
methyl 2-({4-[2-(2-cyano-4-nitrophenyl)diazen-1-yl]-3-acetamidophenyl}(2-methoxy-2-oxoethyl)amino)acetate,,COC(=O)CN(CC(=O)OC)c1ccc(N=Nc2ccc(cc2C#N)[N+]([O-])=O)c(NC(C)=O)c1,DSYAJHRMVXOBRK-UHFFFAOYSA-N,-5.193519738
Norgestrel,CAS6533-00-2,C#C[C@]1(O)CC[C@H]2[C@@H]3CCC4=CC(=O)CC[C@@H]4[C@H]3CC[C@@]21CC,WWYNJERNGUHSAO-XUDSTZEESA-N,-5.19
"1,10-phenanthroline, 3,4,7,8-tetramethyl-",,Cc1cnc2c(ccc3c(C)c(C)cnc23)c1C,NPAXPTHCUCUHPT-UHFFFAOYSA-N,-5.1939
Kresoxim-methy,,CO\N=C(C(=O)OC)/c1ccccc1COc2ccccc2C,ZOTBXTZVPHCKPN-HTXNQAPBSA-N,-5.195
"2',3,4-trichlorodiphenyl ether",,Clc1ccc(Oc2ccccc2Cl)cc1Cl,VBNJGYOQZAENPO-UHFFFAOYSA-N,-5.199
2-methyloctyl prop-2-enoate,,CC(C)CCCCCCCOC(=O)C=C,LVGFPWDANALGOY-UHFFFAOYSA-N,-5.199912698
4-chlorobiphenyl,,c1ccccc1c2ccc(Cl)cc2,FPWNLURCHDRMHC-UHFFFAOYSA-N,-5.2
thiazopyr,,COC(=O)c1c(CC(C)C)c(C2=NCCS2)c(nc1C(F)F)C(F)(F)F,YIJZJEYQBAAWRJ-UHFFFAOYSA-N,-5.2002
phosmethylan,,CCCC(=O)N(CS[P](=S)(OC)OC)c1ccccc1Cl,MVBGKYGTNGPFHT-UHFFFAOYSA-N,-5.204
,CHEMBL1783285,COc1cc(c(OC)nn1)c2c(F)ccc3c(N)c(nnc23)C(=O)NC4CC4,KJDDJAPSHCVDDC-UHFFFAOYSA-N,-5.207353572
p-nitrobiphenyl,,[O-][N+](=O)c1ccc(cc1)c2ccccc2,BAJQRLZAPXASRD-UHFFFAOYSA-N,-5.2094
acronine;  acromycine;  acronycine,,COC1=C2C(=O)C3=C(C=CC=C3)N(C)C2=C4C=CC(C)(C)OC4=C1,SMPZPKRDRQOOHT-UHFFFAOYSA-N,-5.21
"2,6-PCB",,c1ccccc1c2c(Cl)cccc2Cl,IYZWUWBAFUBNCH-UHFFFAOYSA-N,-5.21
9H-carbazole,,[nH]1c2ccccc2c3ccccc13,UJOBWOGCFQCDNV-UHFFFAOYSA-N,-5.21042762
"naphthalene, 2-(2-methylpropoxy)-",,CC(C)COc1ccc2ccccc2c1,XOHIHZHSDMWWMS-UHFFFAOYSA-N,-5.2117
Nitrendipine,CAS39562-70-4,CCOC(=O)C1=C(NC(=C(C1C2=CC(=CC=C2)[N+](=O)[O-])C(=O)OC)C)C,PVHUJELLJLJGLN-UHFFFAOYSA-N,-5.21
fluorodifen,,[O-][N+](=O)c1ccc(Oc2ccc(cc2[N+]([O-])=O)C(F)(F)F)cc1,HHMCAJWVGYGUEF-UHFFFAOYSA-N,-5.2151
isoxathion,,CCO[P](=S)(OCC)Oc1cc(on1)c2ccccc2,SDMSCIWHRZJSRN-UHFFFAOYSA-N,-5.2172
4-{1-[4-(cyanooxy)phenyl]ethyl}phenyl cyanate,,CC(c1ccc(OC#N)cc1)c2ccc(OC#N)cc2,SIZDMAYTWUINIG-UHFFFAOYSA-N,-5.217950889
1-methylfluorene,,Cc1cccc2c1Cc3ccccc23,GKEUODMJRFDLJY-UHFFFAOYSA-N,-5.2184
Liothyronine,,NC(Cc2cc(I)c(Oc1ccc(O)c(I)c1)c(I)c2)C(O)=O,AUYYCJSJGJYCDS-UHFFFAOYSA-N,-5.22
"2,2-diethyl-n-hydroxydecanamide",,CCCCCCCCC(CC)(CC)C(=O)NO,HAKJTBOWCJGLKF-UHFFFAOYSA-N,-5.22
"7-chloro-4,6-dimethoxy-5'-methyl-3'-propoxyspiro[1-benzofuran-2,6'-cyclohex-2-ene]-1',3-dione",,CCCOC1=CC(=O)C2(OC3=C(C2=O)C(OC)=CC(OC)=C3Cl)C(C)C1,JBUAXQJLEVDLMQ-UHFFFAOYSA-N,-5.22
Sulfasalazine,CAS599-79-1,O=C(O)c1cc(/N=N/c2ccc(S(=O)(=O)Nc3ccccn3)cc2)ccc1O,NCEXYHBECQHGNR-QZQOTICOSA-N,-5.22
chlozolinate,,CCOC(=O)C1(C)OC(=O)N(C1=O)c2cc(Cl)cc(Cl)c2,IGUYEXXAGBDLLX-UHFFFAOYSA-N,-5.2203
,CHEMBL2164385,Brc1cccc(CNC(=O)C2N(CCc3ccccn3)C(=O)c4ccccc24)c1,RERHIKRBDUEBLN-UHFFFAOYSA-N,-5.220635674
,CHEMBL3632776,CC(C)(C)c1nc(CCCCCC2CCCCC2)c3c(N)c(C#N)c(N)nc3n1,RBFNQUPNYAJJIX-UHFFFAOYSA-N,-5.221545394
,CHEMBL3632772,CCCCc1nc(nc2nc(N)c(C#N)c(N)c12)C(C)(C)C,FJGQBWFMSTVOTA-UHFFFAOYSA-N,-5.221558426
,CHEMBL3632774,CC(C)(C)c1nc(CCCCCC#N)c2c(N)c(C#N)c(N)nc2n1,GEAAUHDYHXGWQO-UHFFFAOYSA-N,-5.221567418
,CHEMBL2164357,FC(F)(F)Oc1ccc(CNC(=O)C2N(CCCc3ccccn3)C(=O)c4ccccc24)cc1,GJIRLHHTNZRIPN-UHFFFAOYSA-N,-5.22157236
,CHEMBL2164362,CC(C)(CN1C(C(=O)NCc2ccc(OC(F)(F)F)cc2)c3ccccc3C1=O)c4ccccn4,UFLHOUABHDPNNS-UHFFFAOYSA-N,-5.221576468
,CHEMBL2164040,COc1cccc2C(N(CCc3ccccn3)C(=O)c12)C(=O)NCc4ccc(OC(F)(F)F)cc4,DNOVKLUWPXHIRA-UHFFFAOYSA-N,-5.22157692
,CHEMBL3634883,Nc1nc2ncncc2c(N)c1C#N,VFBAVMRFULNXKM-UHFFFAOYSA-N,-5.221604658
Nimodipine,CAS66085-59-4,COCCOC(=O)C1=C(C)NC(C)=C(C(=O)OC(C)C)C1c1cccc([N+](=O)[O-])c1,UIAGMCDKSXEBJQ-UHFFFAOYSA-N,-5.22
isopropyl phenyl diphenyl phosphate,,CC(C)c1ccccc1O[P](=O)(Oc2ccccc2)Oc3ccccc3,JJXNVYMIYBNZQX-UHFFFAOYSA-N,-5.2239
2-(chloromethyl)oxirane; 4-[2-(4-hydroxyphenyl)propan-2-yl]phenol; 2-methylprop-2-enoic acid,,CC(=C)C(O)=O.CC(C)(c1ccc(O)cc1)c2ccc(O)cc2.ClCC3CO3,HXMNCTCIJUKTBN-UHFFFAOYSA-N,-5.229282852
hexamethylbenzene,,CC1=C(C)C(=C(C)C(=C1C)C)C,YUWFEBAXEOLKSG-UHFFFAOYSA-N,-5.23
"sertraline;  (1s,4s)-4-(3,4-dichlorophenyl)-1,2,3,4-tetrahydro-n-methyl-1-naphthalenamine",,CNC1CCC(C2=CC(=C(Cl)C=C2)Cl)C3=C1C=CC=C3,VGKDLMBJGBXTGI-UHFFFAOYSA-N,-5.23
"2,5-dimethylpyrano[5,6-f][1]benzoxol-7-one",,CC1=CC2=CC3=C(C=C2O1)OC(=O)C=C3C,GJYYXSDOKGEWNX-UHFFFAOYSA-N,-5.23
Cisapride,CAS81098-60-4,COc1cc(N)c(Cl)cc1C(=O)N[C@H]1CCN(CCCOc2ccc(F)cc2)C[C@H]1OC,DCSUBABJRXZOMT-RBBKRZOGSA-N,-5.24
"4,5-methylenephenanthrene",,C1c2cccc3ccc4cccc1c4c23,RKZDZWJDQTZDLD-UHFFFAOYSA-N,-5.2379
octane,,CCCCCCCC,TVMXDCGIABBOFY-UHFFFAOYSA-N,-5.2382
N-(5-chloro-2-methylphenyl)-3-hydroxynaphthalene-2-carboxamide,,Cc1ccc(Cl)cc1NC(=O)c2cc3ccccc3cc2O,XZOACPDZZYNJER-UHFFFAOYSA-N,-5.238559032
"1,2-Dihydro-2,2,4-trimethylquinoline, oligomers",,CC1=CC(C)(C)Nc2ccccc12,ZNRLMGFXSPUZNR-UHFFFAOYSA-N,-5.238695804
"benzene, 1,2,3,4-tetrachloro-5,6-dimethoxy-",,COc1c(Cl)c(Cl)c(Cl)c(Cl)c1OC,NCYHCGGUQGDEQW-UHFFFAOYSA-N,-5.2394
"3,9-bis(cyclohex-3-en-1-yl)-2,4,8,10-tetraoxaspiro[5.5]undecane",,C1CC(CC=C1)C2OCC3(CO2)COC(OC3)C4CCC=CC4,WKTJXDHLMJKSGI-UHFFFAOYSA-N,-5.239735444
Phenothrin,,CC(C)=CC3C(C(=O)OCc2cccc(Oc1ccccc1)c2)C3(C)C,SBNFWQZLDJGRLK-UHFFFAOYSA-N,-5.24
ethyl 2-(6-methoxynaphthalen-2-yl)propanoate,,CCOC(=O)C(C)C1=CC2=CC=C(OC)C=C2C=C1,URNAYRDBUUZOIU-UHFFFAOYSA-N,-5.24
pyrimidifen,,CCOCCc1ccc(OCCNc2ncnc(CC)c2Cl)c(C)c1C,ITKAIUGKVKDENI-UHFFFAOYSA-N,-5.2409
"tridiphane;  2-(3,5-dichlorophenyl)-2-(2,2,2-trichloroethyl)oxirane",,ClC1=CC(=CC(=C1)C2(CO2)CC(Cl)(Cl)Cl)Cl,IBZHOAONZVJLOB-UHFFFAOYSA-N,-5.25
"N,N-dimethyl-4-phenyldiazenylaniline",,CN(C)C1=CC=C(N=NC2=CC=CC=C2)C=C1,JCYPECIVGRXBMO-UHFFFAOYSA-N,-5.25
N-(4-acetamidophenyl)-3-hydroxy-2-naphthamide,,CC(=O)Nc1ccc(NC(=O)c2cc3ccccc3cc2O)cc1,MSRUOXBBGPWHEG-UHFFFAOYSA-N,-5.250349512