Name,ID,SMILES,inchi,LogS
Flutamide,CAS13311-84-7,CC(C)C(=O)Nc1ccc([N+](=O)[O-])c(C(F)(F)F)c1,MKXKFYHWDHIYRV-UHFFFAOYSA-N,-4.46
halosulfuron-methyl,,COC(=O)c1c(Cl)nn(C)c1[S](=O)(=O)NC(=O)Nc2nc(OC)cc(OC)n2,FMGZEUWROYGLAY-UHFFFAOYSA-N,-4.4642
fenthoate,,CCOC(=O)C(S[P](=S)(OC)OC)c1ccccc1,XAMUDJHXFNRLCY-UHFFFAOYSA-N,-4.4643
"(E)-N,6,6-trimethyl-N-(naphthalen-1-ylmethyl)hept-2-en-4-yn-1-amine",,CN(C\C=C\C#CC(C)(C)C)Cc1cccc2ccccc12,DOMXUEMWDBAQBQ-WEVVVXLNSA-N,-4.464546178
"1,4-naphthalenedione, 2-(methylthio)-",,CSC1=CC(=O)c2ccccc2C1=O,GGFFBRRZAKLGFX-UHFFFAOYSA-N,-4.4651
"7-chloro-5-(2-chlorophenyl)-2-oxo-2,3-dihydro-1H-1,4-benzodiazepin-4-ium-4-olate",,ON1CC(=O)N=C2C=CC(=CC2=C1c3ccccc3Cl)Cl,HIJLVSVTJNDDHT-UHFFFAOYSA-N,-4.465332821
"1,4-dimethylcyclohexane",,CC1CCC(C)CC1,QRMPKOFEUHIBNM-UHFFFAOYSA-N,-4.4657
,CHEMBL2164383,Cc1ccc(NC(=O)C2N(CCc3ccccn3)C(=O)c4ccccc24)cc1C,OMNRGNMKVRPIKA-UHFFFAOYSA-N,-4.468204398
,CHEMBL2335900,C[C@@H](NC(=O)[C@H]1CCCNC1)c2ccc(Nc3ncc4cc(ccc4n3)c5ccncc5)cc2,UQUPPVNCPRBTOT-GCJKJVERSA-N,-4.468216245
,CHEMBL2335901,C[C@@H](NC(=O)C1CCNCC1)c2ccc(Nc3ncc4cc(ccc4n3)c5ccncc5)cc2,AFEZLCYYYAHZRZ-GOSISDBHSA-N,-4.468216245
,CHEMBL2164393,CC(NC(=O)C1N(CCc2ccccn2)C(=O)c3ccccc13)c4ccc(OCC(F)(F)F)cc4,RJNKNDSSHJFMOQ-UHFFFAOYSA-N,-4.468248801
thenylchlor,,COc1ccsc1CN(C(=O)CCl)c2c(C)cccc2C,KDWQYMVPYJGPHS-UHFFFAOYSA-N,-4.4689
magnesium(2+) ion dihydroxide,,[OH-].[OH-].[Mg++],VTHJTEIRLNZDEV-UHFFFAOYSA-L,-4.469144878
n-heptane,,CCCCCCC,IMNFDUFMRHMDMM-UHFFFAOYSA-N,-4.4694
"4-(2,4,4-trimethylpentan-2-yl)phenol",,CC(C)(C)CC(C)(C)c1ccc(O)cc1,ISAVYTVYFVQUDY-UHFFFAOYSA-N,-4.469462233
ethinyl  estradiol,,CC12CCC3C(CCC4=CC(=CC=C34)O)C1CCC2(O)C#C,BFPYWIDHMRZLRN-UHFFFAOYSA-N,-4.47
3-(acetyloxymethyl)phenytoin,,CC(=O)OCN1C(=O)NC(C1=O)(C2=CC=CC=C2)C3=CC=CC=C3,FBFCVJNZKBVVRP-UHFFFAOYSA-N,-4.47
rotenone,,COC1=CC2=C(C=C1OC)C3C(CO2)OC4=C(C=CC5=C4CC(O5)C(C)=C)C3=O,JUVIOZPCNVVQFO-UHFFFAOYSA-N,-4.47
Medinoterb_Acetate,,CC(=O)Oc1c(N(=O)(=O))c(C)c(N(=O)(=O))cc1C(C)(C)C,LWULXYSYLOIDQY-UHFFFAOYSA-N,-4.47
"2,4-Dichloro-n-hydroxy-n-(3-methylphenyl)benzamide",,CC1=CC=CC(N(O)C(=O)C2=C(Cl)C=C(Cl)C=C2)=C1,OTJKGYCJALAOOX-UHFFFAOYSA-N,-4.47
nonyl acetate,,CCCCCCCCCOC(C)=O,GJQIMXVRFNLMTB-UHFFFAOYSA-N,-4.47086065
"2,6-dichloro-4-nitroaniline",,Nc1c(Cl)cc(cc1Cl)[N+]([O-])=O,BIXZHMJUSMUDOQ-UHFFFAOYSA-N,-4.4709
"2,2-dimethyl-3-methylidenebicyclo[2.2.1]heptane",,CC1(C)C2CCC(C2)C1=C,CRPUJAZIXJMDBK-UHFFFAOYSA-N,-4.471540428
medinoterb acetate,,CC(=O)Oc1c(cc(c(C)c1C(C)(C)C)[N+]([O-])=O)[N+]([O-])=O,GZJNBGYLANALSV-UHFFFAOYSA-N,-4.4717
1-tert-butyl-4-methylbenzene,,Cc1ccc(cc1)C(C)(C)C,QCWXDVFBZVHKLV-UHFFFAOYSA-N,-4.472021768
"diethyl (3,5-di-tert-butyl-4-hydroxybenzyl)phosphonate",,CCO[P](=O)(Cc1cc(c(O)c(c1)C(C)(C)C)C(C)(C)C)OCC,GJDRKHHGPHLVNI-UHFFFAOYSA-N,-4.472808844
"2-thiophenesulfonamide, 4-(4-methoxybenzoyl)-",,COc1ccc(cc1)C(=O)c2csc(c2)[S](N)(=O)=O,CNGDZXAWOIPFFX-UHFFFAOYSA-N,-4.4733
Norethindrone,CAS68-22-4,C#C[C@]1(O)CC[C@H]2[C@@H]3CCC4=CC(=O)CC[C@@H]4[C@H]3CC[C@@]21C,VIKNJXKGJWUCNN-XGXHKTLJSA-N,-4.47
"1,1,3-trimethylcyclopentane",,CC1CCC(C)(C)C1,OBKHYUIZSOIEPG-UHFFFAOYSA-N,-4.4784
me (1-(4-bromo)phenylsulfonyl) cyclohexane carbo,,COC(=O)C1(CCCCC1)[S](=O)(=O)c2ccc(Br)cc2,FRWFRRPXOYMNKY-UHFFFAOYSA-N,-4.4786
testosterone  benzoate,,CC12CCC3C(CCC4=CC(=O)CCC34C)C1CCC2OC(=O)C5=CC=CC=C5,RZJSCADWIWNGKI-UHFFFAOYSA-N,-4.48
"7-Methoxy-1-methyl-9H-pyrido[3,4-b]indole",,COC1=CC2=C(C=C1)C1=C(N2)C(C)=NC=C1,BXNJHAXVSOCGBA-UHFFFAOYSA-N,-4.48
7-(3-amino-2-methylazetidin-1-yl)-8-chloro-1-cyclopropyl-6-fluoro-4-oxoquinoline-3-carboxylic acid,,CC1C(N)CN1C1=C(Cl)C2=C(C=C1F)C(=O)C(C(=O)O)=CN2C1CC1,FGAPXYWEQVSGDJ-UHFFFAOYSA-N,-4.48
undecan-1-ol,,CCCCCCCCCCCO,KJIOQYGWTQBHNH-UHFFFAOYSA-N,-4.480440668
flamprop-m-isopropyl,,CC(C)OC(=O)[C@@H](C)N(C(=O)c1ccccc1)c2ccc(F)c(Cl)c2,IKVXBIIHQGXQRQ-CYBMUJFWSA-N,-4.4817
2-phenylethyl 2-hydroxybenzoate,,Oc1ccccc1C(=O)OCCc2ccccc2,YNMSDIQQNIRGDP-UHFFFAOYSA-N,-4.489105335
n1-(2-nitrophenyl)sulfanilamide,,NC1=CC=C(C=C1)[S](=O)(=O)NC2=CC=CC=C2[N+]([O-])=O,BRVWBJZREZWBRX-UHFFFAOYSA-N,-4.49
"2-({2,2-bis[(prop-2-enoyloxy)methyl]butoxy}methyl)-2-[(prop-2-enoyloxy)methyl]butyl prop-2-enoate",,CCC(COCC(CC)(COC(=O)C=C)COC(=O)C=C)(COC(=O)C=C)COC(=O)C=C,XRMBQHTWUBGQDN-UHFFFAOYSA-N,-4.492785524
"(octahydro-4,7-methano-1H-indenediyl)bis(methylene) diacrylate",,C=CC(=O)OCC1CCC2C3CC(CC3COC(=O)C=C)C12,VEBCLRKUSAGCDF-UHFFFAOYSA-N,-4.493085819
,CHEMBL2164394,FC(F)Oc1ccc(CNC(=O)C2N(CCc3ccccn3)C(=O)c4ccccc24)cn1,OUYULONQGHHEEU-UHFFFAOYSA-N,-4.494572918
,CHEMBL2164880,CCN(CCO)C(=O)c1cc2c(C)ccnn2c1c3cccc(c3)C(F)(F)F,KKFQSUREMXRUKG-UHFFFAOYSA-N,-4.494584477
Olanzapine,CAS132539-06-1,Cc1cc2c(s1)Nc1ccccc1N=C2N1CCN(C)CC1,KVWDHTXUZHCGIO-UHFFFAOYSA-N,-4.49
Cloxacillin,CAS61-72-3,Cc1onc(-c2ccccc2Cl)c1C(=O)N[C@@H]1C(=O)N2[C@@H](C(=O)O)C(C)(C)S[C@H]12,LQOLIRLGBULYKD-JKIFEVAISA-N,-4.5
4-nonylphenol,,CCCCCCCCCc1ccc(O)cc1,IGFHQQFPSIBGKE-UHFFFAOYSA-N,-4.49802684
piroxicam,,CN1C(=C(O)C2=C(C=CC=C2)[S]1(=O)=O)C(=O)NC3=CC=CC=N3,QYSPLQLAKJAUJT-UHFFFAOYSA-N,-4.5
amdinocillin; mecillinam,,CC1(C)SC2C(N=CN3CCCCCC3)C(=O)N2C1C(O)=O,BWWVAEOLVKTZFQ-UHFFFAOYSA-N,-4.5
4-Amino-N-(2-methyl-1-naphthyl)benzenesulfonamide,,CC1=C(NS(=O)(=O)C2=CC=C(N)C=C2)C2=C(C=CC=C2)C=C1,CTYGQWCPJMPEBS-UHFFFAOYSA-N,-4.5
sulindac_form_II,,CC1=C(CC(O)=O)c2cc(F)ccc2C\1=C\c1ccc(cc1)S(C)=O,MLKXDPUZXIRXEP-RQZCQDPDSA-N,-4.5
manganese(2+) ion carbonate,,[Mn++].[O-]C([O-])=O,XMWCXZJXESXBBY-UHFFFAOYSA-L,-4.500587238
"(1,1-dimethylpropyl)benzene",,CCC(C)(C)c1ccccc1,QHTJSSMHBLGUHV-UHFFFAOYSA-N,-4.50074592
"3-ethyl 5-methyl 4-(2-chlorophenyl)-1,4-dihydro-2-[2-(1,3-dihydro-1,3-dioxo-(2H)isoindol-2-yl)-ethoxymethyl]-6-methyl-3,5-pyridinedicarboxylate",,CCOC(=O)C1=C(COCCN2C(=O)c3ccccc3C2=O)NC(=C(C1c4ccccc4Cl)C(=O)OC)C,AHHPZGUFLGCZCF-UHFFFAOYSA-N,-4.501126952
"Butanal, reaction products with aniline",,CCCC=O.Nc1ccccc1,SRGBNANKQPZXFZ-UHFFFAOYSA-N,-4.50210133
beta-peltatin,,COc1cc(cc(OC)c1OC)[C@H]2[C@@H]3[C@H](COC3=O)Cc4c(O)c5OCOc5cc24,HLBPOYVRLSXWJJ-PDSMFRHLSA-N,-4.5035
,CHEMBL1631198,CS(=O)(=O)c1ccc(c2ccc(F)cc2)c(c1)C(=O)N3Cc4ccc(cc4C3)C5CCOCC5,QMVMTEKLTFRTEL-UHFFFAOYSA-N,-4.504386268
tecloftalam,,OC(=O)c1c(Cl)c(Cl)c(Cl)c(Cl)c1C(=O)Nc2cccc(Cl)c2Cl,ROZUQUDEWZIBHV-UHFFFAOYSA-N,-4.5051
"16,23-dihydronaphth[2',3':6,7]indolo[2,3-c]dinaphtho[2,3-a:2'3'-i]carbazole-5,10,15,17,22,24-hexone",,O=C1c2ccccc2C(=O)c3c4[nH]c5c6C(=O)c7ccccc7C(=O)c6c8[nH]c9c(ccc%10C(=O)c%11ccccc%11C(=O)c9%10)c8c5c4ccc13,DCYIADGZPJOOFN-UHFFFAOYSA-N,-4.509615108
hex-3-en-1-yl hex-3-enoate,,CC\C=C/CCOC(=O)C\C=C/CC,UZJQQWFHPLYECS-SFECMWDFSA-N,-4.509709484
n1-(2-nitrophenyl)-2-methylsulfanilamide;  2-nitro-1-(4-amino-2-methylphenylsulfonamido)benzene,,CC1=C(C=CC(=C1)N)[S](=O)(=O)NC2=C(C=CC=C2)[N+]([O-])=O,HZKCDBKRNMDOJB-UHFFFAOYSA-N,-4.51
chlorobenzilate,,CCOC(=O)C(O)(c1ccc(Cl)cc1)c2ccc(Cl)cc2,RAPBNVDSDCTNRC-UHFFFAOYSA-N,-4.512
Nickel subsulfide,,[Ni][Ni][Ni]=[S]=S,UPSUSTJZZWSTPN-UHFFFAOYSA-N,-4.514309168
10-Methoxyiminostilbene,,COC1=Cc2ccccc2Nc3ccccc13,ZKHZWXLOSIGIGZ-UHFFFAOYSA-N,-4.514419394
phenyl-4-aminosalicylate,,Nc1ccc(c(O)c1)C(=O)Oc2ccccc2,DNVVZWSVACQWJE-UHFFFAOYSA-N,-4.5152
azinphos ethyl,,CCO[P](=S)(OCC)SCN1N=Nc2ccccc2C1=O,RQVGAIADHNPSME-UHFFFAOYSA-N,-4.5171
perfluoropropane,,FC(F)(F)C(F)(F)C(F)(F)F,QYSGYZVSCZSLHT-UHFFFAOYSA-N,-4.518
"benzene, 1,3-diiodo-",,Ic1cccc(I)c1,SFPQFQUXAJOWNF-UHFFFAOYSA-N,-4.518
oxonickel,,O=[Ni],GNRSAWUEBMWBQH-UHFFFAOYSA-N,-4.519165649
n1-(4-ethylphenyl)sulfanilamide;  1-sulfanilamido-4-ethylbenzene,,CCC1=CC=C(N[S](=O)(=O)C2=CC=C(N)C=C2)C=C1,JWTZQLSHXWBZJJ-UHFFFAOYSA-N,-4.52
n1-(4-iodophenyl)sulfanilamide,,NC1=CC=C(C=C1)[S](=O)(=O)NC2=CC=C(I)C=C2,GNYYVWOTRVNKCO-UHFFFAOYSA-N,-4.52
carbendazim; methyl n-(benzimidazol-2-yl)carbamate; 2-(methoxycarbonylamino)benzimidazole,,COC(=O)NC1=NC2=CC=CC=C2[NH]1,TWFZGCMQGLPBSX-UHFFFAOYSA-N,-4.52
desmedipham,,CCOC(=O)NC1=CC(=CC=C1)OC(=O)NC2=CC=CC=C2,WZJZMXBKUWKXTQ-UHFFFAOYSA-N,-4.52
"tetrachlorvinphos;  2-chloro-1-(2,4,5-trichlorophenyl)vinyl dimethyl phosphate",,CO[P](=O)(OC)OC(=C\Cl)/C1=C(Cl)C=C(Cl)C(=C1)Cl,UBCKGWBNUIFUST-YHYXMXQVSA-N,-4.52
naproxen-derivat 3f,,CCC(C)C(N)C(=O)OCCCCOC(=O)C(C)C1=CC2=CC=C(OC)C=C2C=C1,UHSJNNFEGHBUMV-UHFFFAOYSA-N,-4.52
valdecoxib,,CC1=C(C2=CC=C(C=C2)[S](N)(=O)=O)C(=NO1)C3=CC=CC=C3,LNPDTQAFDNKSHK-UHFFFAOYSA-N,-4.52
"[(~{Z})-2-chloro-1-(2,4,5-trichlorophenyl)ethenyl] dimethyl phosphate",,COP(=O)(OC)OC(=CCl)C1=C(Cl)C=C(Cl)C(Cl)=C1,UBCKGWBNUIFUST-UHFFFAOYSA-N,-4.52
Octyl 3-bromo-4-hydroxybenzoate,,CCCCCCCCOC(=O)C1=CC(Br)=C(O)C=C1,DSRZQIDFVZUCGM-UHFFFAOYSA-N,-4.52
"7-chloro-4,6-dimethoxy-5'-methyl-3'-propoxyspiro[1-benzofuran-2,4'-cyclohex-2-ene]-1',3-dione",,CCCOC1=CC(=O)CC(C)C12OC1=C(C2=O)C(OC)=CC(OC)=C1Cl,CFOHRWBARJOUIP-UHFFFAOYSA-N,-4.52
"2,2'-dithiobisbenzothiazole",,S(Sc1sc2ccccc2n1)c3sc4ccccc4n3,AFZSMODLJJCVPP-UHFFFAOYSA-N,-4.5218
Mizolastine,CAS108612-45-9,CN(c1nccc(=O)[nH]1)C1CCN(c2nc3ccccc3n2Cc2ccc(F)cc2)CC1,PVLJETXTTWAYEW-UHFFFAOYSA-N,-4.52
tetrachlorvinphos,,CO[P](=O)(OC)OC(=C/Cl)/c1cc(Cl)c(Cl)cc1Cl,UBCKGWBNUIFUST-BJMVGYQFSA-N,-4.5221
Calcoloid Olive r,,O=C(Nc1cc2c([nH]c3c2cc(NC(=O)c4ccccc4)c5C(=O)c6ccccc6C(=O)c35)c7C(=O)c8ccccc8C(=O)c17)c9ccccc9,OXEFCDNMUKTKDV-UHFFFAOYSA-N,-4.522223117
,CHEMBL1209739,COc1ccc(cc1)S(=O)(=O)NCC(N2CCCCCC2)c3ccccc3,YYLULTMLGCKKSZ-UHFFFAOYSA-N,-4.52250083
,CHEMBL2164375,CC(C)(C)OC(=O)N1CC(C1)N2C(C(=O)NCc3ccc(OC(F)(F)F)cc3)c4ccccc4C2=O,VIZAVJRLNLXOKV-UHFFFAOYSA-N,-4.522614436
,CHEMBL3632791,CC(C)(C)c1nc(c2cnn[nH]2)c3c(N)c(C#N)c(N)nc3n1,QZLWMZZSKBYEKX-UHFFFAOYSA-N,-4.522618989
4-[(4-hydroxyphenyl)(pyridin-2-yl)methyl]phenol,,Oc1ccc(cc1)C(c2ccc(O)cc2)c3ccccn3,LJROKJGQSPMTKB-UHFFFAOYSA-N,-4.523907797
4-ethylamino-6-isopropylamino-s-triazin-2-ol,,CCNC1=NC(=O)N=C(NC(C)C)N1,NFMIMWNQWAWNDW-UHFFFAOYSA-N,-4.5241
"2,2'-(2,5-dichloro-1,4-phenylene)bis(1H-anthra[1,2-d]imidazole-6,11-dione)",,Clc1cc(c(Cl)cc1c2[nH]c3ccc4C(=O)c5ccccc5C(=O)c4c3n2)c6[nH]c7ccc8C(=O)c9ccccc9C(=O)c8c7n6,MLQFPPIUTFMVLZ-UHFFFAOYSA-N,-4.524775941
trovafloxacin,,NC1[C@H]2CN(C[C@@H]12)c3nc4N(C=C(C(O)=O)C(=O)c4cc3F)c5ccc(F)cc5F,WVPSKSLAZQPAKQ-SOSAQKQKSA-N,-4.5296
"prasterone  acetate;  dehydroepiandrosterone  acetate; prasterone acetate; 5,6-dehydroisoandrosterone acetate",,CC(=O)OC1CCC2(C)C3CCC4(C)C(CCC4=O)C3CC=C2C1,NCMZQTLCXHGLOK-UHFFFAOYSA-N,-4.53
acetaminophen  decanoate,,CCCCCCCCCC(=O)OC1=CC=C(NC(C)=O)C=C1,MKSNUUCDBOSWNQ-UHFFFAOYSA-N,-4.53
trovafloxacin,,NC1C2CN(CC12)C3=NC4=C(C=C3F)C(=O)C(=CN4C5=CC=C(F)C=C5F)C(O)=O,WVPSKSLAZQPAKQ-UHFFFAOYSA-N,-4.53
"3,3-diethylpiperidine-2,6-dione",,CCC1(CC)CCC(=O)NC1=O,CKCSUNHTSMNWOK-UHFFFAOYSA-N,-4.53
chloropropylate,,c1ccc(Cl)cc1C(c2ccc(Cl)cc2)(O)C(=O)OC(C)C,XCKRRIQXHFBKKB-UHFFFAOYSA-N,-4.53
"methyl 3-amino-5,6-dichloropyrazine-2-carboxylate",,COC(=O)c1nc(Cl)c(Cl)nc1N,USYMCUGEGUFUBI-UHFFFAOYSA-N,-4.534838609
2-hydroxy-1-(4-{[4-(2-hydroxy-2-methylpropanoyl)phenyl]methyl}phenyl)-2-methylpropan-1-one,,CC(C)(O)C(=O)c1ccc(Cc2ccc(cc2)C(=O)C(C)(C)O)cc1,PCKZAVNWRLEHIP-UHFFFAOYSA-N,-4.536378597
anilazine,,Clc1nc(Cl)nc(Nc2ccccc2Cl)n1,IMHBYKMAHXWHRP-UHFFFAOYSA-N,-4.5371
glafenine,,OCC(O)COC(=O)C1=C(NC2=C3C=CC(=CC3=NC=C2)Cl)C=CC=C1,GWOFUCIGLDBNKM-UHFFFAOYSA-N,-4.54
uniconazole-p,,CC(C)(C)[C@H](O)\C(=C/c1ccc(Cl)cc1)n2cncn2,YNWVFADWVLCOPU-MAUPQMMJSA-N,-4.5403
uniconazole,,CC(C)(C)C(O)\C(=C/c1ccc(Cl)cc1)n2cncn2,YNWVFADWVLCOPU-MDWZMJQESA-N,-4.5403
dibutyltin maleate,,CCCC[Sn++]CCCC.[O-]C(=O)\C=C\C([O-])=O,ZBBLRPRYYSJUCZ-YOTINIEPSA-L,-4.540328223
furathiocarb,,CCCCOC(=O)N(C)SN(C)C(=O)Oc1cccc2CC(C)(C)Oc12,HAWJXYBZNNRMNO-UHFFFAOYSA-N,-4.5412
"(1S,2S,4S)-1,7,7-trimethylbicyclo[2.2.1]heptan-2-yl 2-methylprop-2-enoate",,CC(=C)C(=O)OC1CC2CCC1(C)C2(C)C,IAXXETNIOYFMLW-UHFFFAOYSA-N,-4.544220436
"1,1-bis(p-meo-ph)-2-nitropropane",,COc1ccc(cc1)C(C(C)[N+]([O-])=O)c2ccc(OC)cc2,PFPRAVYUXJWMGK-UHFFFAOYSA-N,-4.5446
"salicylanilide, 4'-chloro-3-nitro-",,Oc1c(cccc1[N+]([O-])=O)C(=O)Nc2ccc(Cl)cc2,UOHLBUBEMXVTMQ-UHFFFAOYSA-N,-4.5452
"simazine;  2-chloro-4,6-di(ethylamino)-1,3,5-triazine",,CCNC1=NC(=NC(=N1)Cl)NCC,ODCWYMIRDDJXKW-UHFFFAOYSA-N,-4.55
"2-amino-1,8-dihydropteridine-4,7-dione",,NC1=NC2=C(N=CC(=O)N2)C(=O)N1,GLKCOBIIZKYKFN-UHFFFAOYSA-N,-4.55
1-Iodonapthalene,,Ic1cccc2ccccc12,NHPPIJMARIVBGU-UHFFFAOYSA-N,-4.55
amitryptyline,,CN(C)CC\C=C1\c2ccccc2CCc2ccccc12,KRMDCWKBEZIMAB-UHFFFAOYSA-N,-4.55
,CHEMBL1783280,CCCNC(=O)c1nnc2c(cccc2c1N)c3cnccc3OC,VHGIDFXNMYWNMX-UHFFFAOYSA-N,-4.551002502
sulindac,,CC\1=C(CC(O)=O)c2cc(F)ccc2C1=C\c3ccc(cc3)[S](C)=O,MLKXDPUZXIRXEP-MFOYZWKCSA-N,-4.552
,CHEMBL2164360,CC(Cc1ccccn1)N2C(C(=O)NCc3ccc(OC(F)(F)F)cc3)c4ccccc4C2=O,UUCPNZGXIVELPR-UHFFFAOYSA-N,-4.55256558
,CHEMBL2164561,CCN(CCO)C(=O)c1cc2ccc(C)nn2c1c3cccc(c3)C(F)(F)F,QNSFYQXFNWFWRL-UHFFFAOYSA-N,-4.552576424
,CHEMBL2164372,FC(F)(F)Oc1ccc(CNC(=O)C2N(C[C@@H]3CCCO3)C(=O)c4ccccc24)cc1,ADTJNFNFTUUFIJ-UCFFOFKASA-N,-4.5525773
progesterone,,CC(=O)[C@H]1CC[C@H]2[C@@H]3CCC4=CC(=O)CC[C@]4(C)[C@H]3CC[C@]12C,RJKFOVLPORLFTN-LEKSSAKUSA-N,-4.5526
"2,3,4,5-tetrachloronitrobenzene",,[O-][N+](=O)c1cc(Cl)c(Cl)c(Cl)c1Cl,MTBYTWZDRVOMBR-UHFFFAOYSA-N,-4.5531
"tetrachloro-1,3-dihydro-2-benzofuran-1,3-dione",,Clc1c(Cl)c(Cl)c2C(=O)OC(=O)c2c1Cl,AUHHYELHRWCWEZ-UHFFFAOYSA-N,-4.553119611
RTI 15,,CCN2c1nc(C)cc(C)c1NC(=O)c3cccnc23 ,UDDMNBYVRLYNKY-UHFFFAOYSA-N,-4.554
cyclohexyl 2-hydroxybenzoate,,Oc1ccccc1C(=O)OC2CCCCC2,NUQDJSMHGCTKNL-UHFFFAOYSA-N,-4.554076293
"2,4,6-trichloronitrobenzene",,[O-][N+](=O)c1c(Cl)cc(Cl)cc1Cl,AEBJDOTVYMITIA-UHFFFAOYSA-N,-4.5591
bismuth(3+) citrate,,[Bi+3].OC(CC([O-])=O)(CC([O-])=O)C([O-])=O,ANERHPOLUMFRDC-UHFFFAOYSA-K,-4.55976264
heptyl 4-hydroxy-3-iodobenzoate,,CCCCCCCOC(=O)C1=CC(I)=C(O)C=C1,MBJIQNDBGMOBLT-UHFFFAOYSA-N,-4.56
"d-alaninic acid,",,CC(C)OC(=O)[C@H](C)N(C(=O)c1ccccc1)c2ccc(F)c(Cl)c2,IKVXBIIHQGXQRQ-ZDUSSCGKSA-N,-4.561
Raloxifene; Keoxifene,PubChemCID15940170,C1CC[NH+](CC1)CCOC2=CC=C(C=C2)C(=O)C3=C(SC4=C3C=CC(=C4)O)C5=CC=C(C=C5)O,GZUITABIAKMVPG-UHFFFAOYSA-O,-4.56
diclobutrazol isomers,,CC(C)(C)C(O)C(Cc1ccc(Cl)cc1Cl)n2cncn2,URDNHJIVMYZFRT-UHFFFAOYSA-N,-4.5619
"1,2,3,4-tetrachlorobenzene",,Clc1ccc(Cl)c(Cl)c1Cl,GBDZXPJXOMHESU-UHFFFAOYSA-N,-4.5619
1-tert-butyl-4-vinylbenzene,,CC(C)(C)c1ccc(C=C)cc1,QEDJMOONZLUIMC-UHFFFAOYSA-N,-4.563351028
pentalead tetraoxide sulphate,,O.O.O.O.[Pb].[Pb].[Pb].[Pb].[Pb].[O-][S]([O-])(=O)=O,BKMAZJUOHZYBFP-UHFFFAOYSA-L,-4.566123099
N-[3-(dimethylamino)propyl]octadecanamide,,CCCCCCCCCCCCCCCCCC(=O)NCCCN(C)C,WWVIUVHFPSALDO-UHFFFAOYSA-N,-4.566614238
"propane-1,2-diyl dibenzoate",,CC(COC(=O)c1ccccc1)OC(=O)c2ccccc2,UMVMVEZHMZTUHD-UHFFFAOYSA-N,-4.567302938
,CHEMBL2164043,Fc1cnc(CCN2C(C(=O)NCc3ccc(F)c(OC(F)(F)F)c3)c4ccccc4C2=O)nc1,FRIPQARTFVEBSI-UHFFFAOYSA-N,-4.568391044
fenthion,,CO[P](=S)(OC)Oc1ccc(SC)c(C)c1,PNVJTZOFSHSLTO-UHFFFAOYSA-N,-4.5695
chenodeoxycholic  acid;  chenodiol,,CC(CCC(O)=O)C1CCC2C3C(O)CC4CC(O)CCC4(C)C3CCC12C,RUDATBOHQWOJDD-UHFFFAOYSA-N,-4.57
methyl alpha-(4-nitrophenylsulfonyl)cinnamate; 2-methoxycarbonyl-2-(4-nitrophenylsulfonyl)styrene,,COC(=O)\C(=C\C1=CC=CC=C1)[S](=O)(=O)C2=CC=C(C=C2)[N+]([O-])=O,POYJJXCXXKQSST-PTNGSMBKSA-N,-4.57
"Dibenzothiophene 5,5-dioxide",,O=S1(=O)C2=C(C=CC=C2)C2=C1C=CC=C2,IKJFYINYNJYDTA-UHFFFAOYSA-N,-4.57
dihexyl decanedioate,,CCCCCCOC(=O)CCCCCCCCC(=O)OCCCCCC,GQIDSVPVVYHXAP-UHFFFAOYSA-N,-4.57
1-cyclopropyl-6-fluoro-7-(2-methyl-3-methylaminoazetidin-1-yl)-4-oxoquinoline-3-carboxylic acid,,CNC1CN(C2=CC3=C(C=C2F)C(=O)C(C(=O)O)=CN3C2CC2)C1C,CFCYTEUETQNNHM-UHFFFAOYSA-N,-4.57
"4-(3,14-dihydroxy-10,13-dimethyl-1,2,3,4,5,6,7,8,9,11,12,15,16,17-tetradecahydrocyclopenta[a]phenanthren-17-yl)-5H-furan-2-one",,CC12CCC(O)CC1CCC1C2CCC2(C)C(C3=CC(=O)OC3)CCC12O,XZTUSOXSLKTKJQ-UHFFFAOYSA-N,-4.57
Norethisterone,,CC34CCC1C(CCC2=CC(=O)CCC12O)C3CCC4(O)C#C,GYRPICHNIDQFOD-UHFFFAOYSA-N,-4.57
,CHEMBL1783250,CCCNC(=O)c1nnc2c(cccc2c1N)c3ccccc3C,JMRHVJPVNLBGRZ-UHFFFAOYSA-N,-4.571558359
diiron trimolybdenum dodecaoxide,,[O--].[O--].[O--].[O--].[O--].[O--].[O--].[O--].[O--].[Fe+3].[Fe+3].[Mo].[Mo],NGJMAOMHPSCKKA-UHFFFAOYSA-N,-4.57167099
prallethrin,,CC(C)=C[C@H]1[C@H](C(=O)OC2CC(=O)C(=C2C)CC#C)C1(C)C,SMKRKQBMYOFFMU-DRXWIORDSA-N,-4.5746
Chlorimuron-ethyl (ph 7),,CCOC(=O)c1ccccc1S(=O)(=O)NN(C=O)c2nc(Cl)cc(OC)n2,MBDMKWJEKDHRRP-UHFFFAOYSA-N,-4.576
1-(2-benzenesulfonamidophenyl)-3-phenylurea,,O=C(Nc1ccccc1)Nc2ccccc2N[S](=O)(=O)c3ccccc3,BGLZECVIKIGPIF-UHFFFAOYSA-N,-4.578402879
"1,4-dibromo-2-ethenylbenzene",,Brc1ccc(Br)c(C=C)c1,KWVKCGGJLLNVSC-UHFFFAOYSA-N,-4.578730408
Paliperidone,CAS144598-75-4,Cc1nc2n(c(=O)c1CCN1CCC(c3noc4cc(F)ccc34)CC1)CCCC2O,PMXMIIMHBWHSKN-UHFFFAOYSA-N,-4.58
chlorimuron-ethyl,,CCOC(=O)C1=CC=CC=C1[S](=O)(=O)NC(=O)NC2=NC(=CC(=N2)OC)Cl,NSWAMPCUPHPTTC-UHFFFAOYSA-N,-4.58
iopanoic acid,,CCC(CC1=C(I)C(=C(I)C=C1I)N)C(O)=O,OIRFJRBSRORBCM-UHFFFAOYSA-N,-4.58
2-benzoyl-5-methoxyphenol,,COc1ccc(c(O)c1)C(=O)c2ccccc2,DXGLGDHPHMLXJC-UHFFFAOYSA-N,-4.580253828
"ethenyl 2,2-dimethyloctanoate",,CC(C)(C)CCCCCC(=O)OC=C,TVFJAZCVMOXQRK-UHFFFAOYSA-N,-4.581332511
"(1S,2S,4S)-1,7,7-trimethylbicyclo[2.2.1]heptan-2-yl prop-2-enoate",,CC1(C)[C@H]2CC[C@]1(C)C(C2)OC(=O)C=C,PSGCQDPCAWOCSH-BOURZNODSA-N,-4.583092455
prednisolone 21-trimethylacetate,,CC(C)(C)C(=O)OCC(=O)C1(O)CCC2C3CCC4=CC(=O)C=CC4(C)C3C(O)CC12C,PHEOVVDXTQVHAZ-UHFFFAOYSA-N,-4.5835
,CHEMBL2164039,Fc1cccc2C(N(CCc3ccccn3)C(=O)c12)C(=O)NCc4ccc(OC(F)(F)F)cc4,KQCXJCSQTNKAHQ-UHFFFAOYSA-N,-4.584766278
"4-(4,6-dimethylheptan-2-yl)phenol; 4-(5,6-dimethylheptan-2-yl)phenol; 4-(5,6-dimethylheptyl)phenol; 4-(7-methyloctyl)phenol",,CC(C)CCCCCCc1ccc(O)cc1,JSFITYFUKSFPBZ-UHFFFAOYSA-N,-4.587250025
"(2-phenylbutan-2-yl)benzene; (2-phenylethyl)benzene; 1,2,4,5-tetraethylbenzene; 1-methyl-2-phenylbenzene; 1-methylnaphthalene; benzene; cyclohexylbenzene; ethenylbenzene; ethylbenzene; phenylbenzene; toluene",,CCc1ccccc1.CCc2cc(CC)c(CC)cc2CC.CCC(C)(c3ccccc3)c4ccccc4.Cc5ccccc5.Cc6ccccc6c7ccccc7.Cc8cccc9ccccc89.C=Cc%10ccccc%10.C%11CCC(CC%11)c%12ccccc%12.C(Cc%13ccccc%13)c%14ccccc%14.c%15ccccc%15.c%16ccc(cc%16)c%17ccccc%17,ILFKMCMFANUWPS-UHFFFAOYSA-N,-4.588176842
"1,1'-ethane-1,2-diylbis(4-nitrobenzene)",,[O-][N+](=O)c1ccc(CCc2ccc(cc2)[N+]([O-])=O)cc1,BSNKHEKTRWNNAC-UHFFFAOYSA-N,-4.5898858
"spiro-5,5-decamethylenebarbituric acid",,O=C1NC(=O)C2(CCCCCCCCCC2)C(=O)N1,COBKAOXSLALTLT-UHFFFAOYSA-N,-4.59
4-chloro-n1-(2-chlorophenyl)sulfanilamide,,NC1=CC=C(C(=C1)Cl)[S](=O)(=O)NC2=CC=C(Cl)C=C2,RLAKZPRFFJDPOI-UHFFFAOYSA-N,-4.59
"5,5-spirononamethylenebarbituric acid",,O=C1NC(=O)C2(CCCCCCCCC2)C(=O)N1,JXEFLYKRWPXVBB-UHFFFAOYSA-N,-4.59
"1,3-dipropyl-8-dicyclopropylmethylxanthine",,CCCN1C(=O)N(CCC)C2=C([NH]C(=N2)C(C3CC3)C4CC4)C1=O,OEPXIQLEKWHAGE-UHFFFAOYSA-N,-4.59
lenacil,,O=C1NC2=C(CCC2)C(=O)N1C3CCCCC3,ZTMKADLOSYKWCA-UHFFFAOYSA-N,-4.5916
2-chlorobiphenyl,,Clc1ccccc1c2ccccc2,LAXBNTIAOJWAOP-UHFFFAOYSA-N,-4.5917
isoxapyrifop,,CC(Oc1ccc(Oc2ncc(Cl)cc2Cl)cc1)C(=O)N3CCCO3,ANFHKXSOSRDDRQ-UHFFFAOYSA-N,-4.5922
"disodium [2,7-dibromo-9-(2-carboxylatophenyl)-6-oxido-3-oxo-3H-xanthen-5-yl]mercurol",,[Na+].[Na+].[O-]C(=O)c1ccccc1C2=C3C=C(Br)C(=O)C=C3Oc4c2cc(Br)c([O-])c4C5=CC=C[Hg]5,QLVIXIXZJAKNOS-UHFFFAOYSA-L,-4.593683066
3-[[2-(2-cyanoethoxy)ethyl][4-[(4-nitrophenyl)azo]phenyl]amino]propiononitrile,,[O-][N+](=O)c1ccc(cc1)N=Nc2ccc(cc2)N(CCOCCC#N)CCC#N,PNWYPUYECVECFF-UHFFFAOYSA-N,-4.593750027
c.i. disperse black 3,,CN(C)c1ccc(cc1)N=Nc2ccc(N)cc2,BVRIUXYMUSKBHG-UHFFFAOYSA-N,-4.594
,CHEMBL2347413,Cn1nc(c2cnc3[nH]cc(C(=O)N[C@@]4(C)C[C@@H](N)C4)c3n2)c5ccc(F)cc15,BUMHWUDGGPIPAG-IYVRIMFBSA-N,-4.594581849
1-[2-(benzoyloxy)propoxy]propan-2-yl benzoate 1-{[1-(benzoyloxy)propan-2-yl]oxy}propan-2-yl benzoate 2-{[1-(benzoyloxy)propan-2-yl]oxy}propyl benzoate,,O=C(OCCCOCCCOC(=O)c1ccccc1)c2ccccc2,BYQDGAVOOHIJQS-UHFFFAOYSA-N,-4.595502564
tetrabutylstannane,,CCCC[Sn](CCCC)(CCCC)CCCC,AFCAKJKUYFLYFK-UHFFFAOYSA-N,-4.596065772
2-methylhexane,,CCCCC(C)C,GXDHCNNESPLIKD-UHFFFAOYSA-N,-4.5961
"2,6-di-t-butyl-p-tolyl methylcarbamate",,CNC(=O)Oc1c(cc(C)cc1C(C)(C)C)C(C)(C)C,PNRAZZZISDRWMV-UHFFFAOYSA-N,-4.598
"3,3,5-trimethylcyclohexyl 2-methylprop-2-enoate",,CC1CC(CC(C)(C)C1)OC(=O)C(C)=C,DABQKEQFLJIRHU-UHFFFAOYSA-N,-4.598598509
dibenzofuran,,O1C2=C(C=CC=C2)C3=C1C=CC=C3,TXCDCPKCNAJMEE-UHFFFAOYSA-N,-4.6