Name,ID,SMILES,inchi,LogS
2-methyl-4-(2-methylphenyl)diazenylaniline,,CC1=C(N)C=CC(N=NC2=C(C)C=CC=C2)=C1,PFRYFZZSECNQOL-UHFFFAOYSA-N,-4.05
,CHEMBL3634888,Nc1nc2nc(ncc2c(N)c1C#N)C3CCCC3,ZZWAXDRVDGHHFB-UHFFFAOYSA-N,-4.050333221
"estr-5(10)-ene-3,17-dione",,C[C@]12CC[C@H]3[C@@H](CCC4=C3CCC(=O)C4)[C@@H]1CCC2=O,RORYLAUXKSWMQL-CBZIJGRNSA-N,-4.054976729
,CHEMBL2164395,FC(F)(F)COc1ccc(CNC(=O)C2N(CCc3ccccn3)C(=O)c4ccccc24)cn1,UQCPFMDHAKQEAO-UHFFFAOYSA-N,-4.055255601
n-butylbenzene,,CCCCc1ccccc1,OCKPCBLVNKHBMX-UHFFFAOYSA-N,-4.0559
"3,7-dimethyloct-6-en-1-yl formate",,CC(CCOC=O)CCC=C(C)C,DZNVIZQPWLDQHI-UHFFFAOYSA-N,-4.055960832
"carboxymethyldimethyl-3-[[(3,3,4,4,5,5,6,6,7,7,8,8,8-tridecafluorooctyl)sulphonyl]amino]propylammonium hydroxide",,C[N+](C)(CCCN[S](=O)(=O)CCC(F)(F)C(F)(F)C(F)(F)C(F)(F)C(F)(F)C(F)(F)F)CC([O-])=O,OKOCIUJVPQKDLL-UHFFFAOYSA-N,-4.057185148
tris(6-methylheptyl)amine,,CC(C)CCCCCN(CCCCCC(C)C)CCCCCC(C)C,YKGBNAGNNUEZQC-UHFFFAOYSA-N,-4.05724758
"4-amino-2,5-dimethoxy-N-phenylbenzenesulfonamide",,COc1cc(c(OC)cc1N)[S](=O)(=O)Nc2ccccc2,NFYQAEPHDGXJSY-UHFFFAOYSA-N,-4.057692864
,CHEMBL1631199,CS(=O)(=O)c1ccc(c2ccc(F)c(F)c2)c(c1)C(=O)N3Cc4cc(cnc4C3)C(F)(F)F,HXKDSNZJKHAINQ-UHFFFAOYSA-N,-4.059862936
"2,4,6,7-pteridinetetraone",,O=C1NC(=O)C2=C(N1)NC(=O)C(=O)N2,MVKRISPIRVEPFM-UHFFFAOYSA-N,-4.06
5-decoxy-2-[(~{E})-~{C}-ethyl-~{N}-hydroxycarbonimidoyl]phenol,,CCCCCCCCCCOC1=CC(O)=C(C(CC)=NO)C=C1,HWOGLWGFRRJDEC-UHFFFAOYSA-N,-4.06
bromogramine,,Brc1cc2c(CN(C)C)c[nH]c2cc1,FSERHDPEOFYMMK-UHFFFAOYSA-N,-4.06
trietazine,,CCNc1nc(Cl)nc(n1)N(CC)CC,HFBWPRKWDIRYNX-UHFFFAOYSA-N,-4.0601
,CHEMBL3632781,CC(C)(C)c1nc(c2ccccn2)c3c(N)c(C#N)c(N)nc3n1,CIUGFHLROKKVBP-UHFFFAOYSA-N,-4.060201259
prop-2-en-1-yl 3-cyclohexylpropanoate,,C=CCOC(=O)CCC1CCCCC1,TWXUTZNBHUWMKJ-UHFFFAOYSA-N,-4.062449254
5-amino-2-[(E)-2-(4-amino-2-sulfophenyl)ethenyl]benzene-1-sulfonic acid,,Nc1ccc(\C=C\c2ccc(N)cc2[S](O)(=O)=O)c(c1)[S](O)(=O)=O,REJHVSOVQBJEBF-OWOJBTEDSA-N,-4.06353038
oxabetrinil,,N#CC(=N\OCC1OCCO1)/c2ccccc2,WFVUIONFJOAYPK-SDNWHVSQSA-N,-4.0649
,CHEMBL3632784,CC(C)(C)c1nc(c2cnccn2)c3c(N)c(C#N)c(N)nc3n1,YWEKXUMPGGUAIJ-UHFFFAOYSA-N,-4.065230045
"[(1S,2R,5S)-5-methyl-2-propan-2-ylcyclohexyl] acetate",,CC(C)[C@H]1CC[C@H](C)C[C@@H]1OC(C)=O,XHXUANMFYXWVNG-WCQGTBRESA-N,-4.066886933
"4-bromo-2,2-diphenylbutanoic acid",,OC(=O)C(CCBr)(c1ccccc1)c2ccccc2,GFIYIIRFIODLLU-UHFFFAOYSA-N,-4.069491258
Leflunomide,CAS75706-12-6,Cc1oncc1C(=O)Nc1ccc(C(F)(F)F)cc1,VHOGYURTWQBHIL-UHFFFAOYSA-N,-4.07
4-(hydroxy-phenylphosphoryl)benzoic acid,,O=C(O)C1=CC=C(P(=O)(O)C2=CC=CC=C2)C=C1,BFSMULOSYIQCGJ-UHFFFAOYSA-N,-4.07
"1,4-dibromobenzene",,Brc1ccc(Br)cc1,SWJPEBQEEAHIGZ-UHFFFAOYSA-N,-4.0717
heptyl p-hydroxybenzoate,,CCCCCCCOC(=O)c1ccc(O)cc1,ZTJORNVITHUQJA-UHFFFAOYSA-N,-4.0725
zinc(2+) ion selenite,,[Zn++].[O-][Se]([O-])=O,PEUPCBAALXHYHP-UHFFFAOYSA-L,-4.079965434
benzoximate,,CCO/N=C(OC(=O)C1=CC=CC=C1)/C2=C(OC)C(=CC=C2OC)Cl,BZMIHNKNQJJVRO-JZJYNLBNSA-N,-4.08
5-ethyl-5-hexyl-2-thiobarbituric  acid,,CCCCCCC1(CC)C(=O)NC(=S)NC1=O,MWKKOAYCASKCLO-UHFFFAOYSA-N,-4.08
diallate,,CC(C)N(C(C)C)C(=O)SCC(Cl)=CCl,SPANOECCGNXGNR-UHFFFAOYSA-N,-4.08
4-chloro-3-[(4-hydroxyphenyl)diazenyl]benzoic acid,,O=C(O)C1=CC(N=NC2=CC=C(O)C=C2)=C(Cl)C=C1,IDLIBMYXWLTILR-UHFFFAOYSA-N,-4.08
"4-amino-~{N}-(1,11,11-trimethyl-3,5-diazatricyclo[6.2.1.0^{2,7}]undeca-2,4,6-trien-4-yl)benzenesulfonamide",,CC12CCC(C3=C1N=C(NS(=O)(=O)C1=CC=C(N)C=C1)N=C3)C2(C)C,CGTMKLDMVFZJPA-UHFFFAOYSA-N,-4.08
cadmium(2+) ion sulfanediide,,S=[Cd],CJOBVZJTOIVNNF-UHFFFAOYSA-N,-4.080623481
n-phenylphthalamic acid,,OC(=O)c1ccccc1C(=O)Nc2ccccc2,DSUPUOGOCIFZBG-UHFFFAOYSA-N,-4.0814
"5-pyrimidinemethanol, .alpha.-(2-chlorophenyl)-.",,OC(c1ccc(F)cc1)(c2cncnc2)c3ccccc3Cl,SAPGTCDSBGMXCD-UHFFFAOYSA-N,-4.083
benzoximate,,CCN(OC(=O)c1ccccc1)C(=O)c2c(OC)ccc(Cl)c2OC,HOERQTQCTISLFR-UHFFFAOYSA-N,-4.0837
"benzene, 1-bromo-3-isothiocyanato-",,Brc1cccc(c1)N=C=S,ZMGMGHNOACSMQN-UHFFFAOYSA-N,-4.0851
pentasodium decanoic acid dodecanoic acid 2-(decanoyloxy)propanoate 2-(dodecanoyloxy)propanoate 2-hydroxypropanoate decanoate dodecanoate,,[Na+].[Na+].[Na+].[Na+].[Na+].CCCCCCCCCCCC(O)=O.CCCCCCCCCCCC([O-])=O.CCCCCCCCCCCC(=O)OC(C)C([O-])=O.CCCCCCCCCC(O)=O.CCCCCCCCCC([O-])=O.CCCCCCCCCC(=O)OC(C)C([O-])=O.CC(O)C([O-])=O,UZWXBVXWDIJVKW-UHFFFAOYSA-I,-4.085731667
"4-[1,1-bis(4-hydroxyphenyl)ethyl]phenol",,CC(c1ccc(O)cc1)(c2ccc(O)cc2)c3ccc(O)cc3,BRPSWMCDEYMRPE-UHFFFAOYSA-N,-4.086559757
Candesartan Cilexetil,CAS145040-37-5,CCOc1nc2cccc(C(=O)OC(C)OC(=O)OC3CCCCC3)c2n1Cc1ccc(-c2ccccc2-c2nnn[nH]2)cc1,GHOSNRCGJFBJIB-UHFFFAOYSA-N,-4.09
"2,4-dichloro-6-nitrophenol",,Oc1c(Cl)cc(Cl)cc1[N+]([O-])=O,LYPMXMBQPXPNIQ-UHFFFAOYSA-N,-4.0876
"zinc 4-methyl-2-thioxo-2,3-dihydrobenzimidazol-1-ide 7-methyl-2-thioxo-2,3-dihydrobenzimidazol-1-ide",,[Zn++].Cc1cccc2[N-]C(=S)Nc12.Cc3cccc4NC(=S)[N-]c34,GHPJYLIEFFVDGR-UHFFFAOYSA-L,-4.08795879
n-(3-aminophenyl)anthranilic  acid;  3'-aminofenamic acid,,NC1=CC=CC(=C1)NC2=CC=CC=C2C(O)=O,UIPDOEPZZQRQKQ-UHFFFAOYSA-N,-4.09
hexyl 3-chloro-4-hydroxybenzoate,,CCCCCCOC(=O)C1=CC(Cl)=C(O)C=C1,XYGOUWSAVDEPBE-UHFFFAOYSA-N,-4.09
4-Tricyclodecylidene butanal,,O=CCC\C=C1/CC2CC1C3CCCC23,WFEISWUNAJPLRX-ONNFQVAWSA-N,-4.090187913
testosterone,,C[C@]12CC[C@H]3[C@@H](CCC4=CC(=O)CC[C@]34C)[C@@H]1CC[C@@H]2O,MUMGGOZAMZWBJJ-DYKIIFRCSA-N,-4.0908
,CHEMBL3632764,Nc1nc2nc(ncc2c(N)c1C#N)C3CCCCC3,OEWXPRMRLVUPSO-UHFFFAOYSA-N,-4.091229444
1-nonyne,,CCCCCCCC#C,OSSQSXOTMIGBCF-UHFFFAOYSA-N,-4.094
c.i. basic orange 2,,[H+].[Cl-].Nc1ccc(N=Nc2ccccc2)c(N)c1,MCTQNEBFZMBRSQ-UHFFFAOYSA-N,-4.0947
"3,7-dimethyloct-6-en-1-yl acetate",,CC(CCOC(C)=O)CCC=C(C)C,JOZKFWLRHCDGJA-UHFFFAOYSA-N,-4.09593873
4-(2-phenylpropan-2-yl)phenol,,CC(C)(c1ccccc1)c2ccc(O)cc2,QBDSZLJBMIMQRS-UHFFFAOYSA-N,-4.096484707
Tiagabine Hydrochloride,CAS145821-59-6,Cc1ccsc1C(=CCCN1CCC[C@@H](C(=O)O)C1)c1sccc1C.Cl,YUKARLAABCGMCN-PKLMIRHRSA-N,-4.1
Isolongifolanone,,CC1(C)C2CCC3(C2)C1C(=O)CCC3(C)C,VCOCESNMLNDPLX-UHFFFAOYSA-N,-4.097612213
fluoromethalone,,C[C@H]1C[C@H]2[C@@H]3CC[C@](O)(C(C)=O)[C@@]3(C)C[C@H](O)[C@]2(F)[C@@]4(C)C=CC(=O)C=C14,FAOZLTXFLGPHNG-KNAQIMQKSA-N,-4.0986
triasulfuron,,COc1nc(C)nc(NC(=O)N[S](=O)(=O)c2ccccc2OCCCl)n1,XOPFESVZMSQIKC-UHFFFAOYSA-N,-4.0989
fluoromethasone;  fluorometholone,,CC1CC2C3CCC(O)(C(C)=O)C3(C)CC(O)C2(F)C4(C)C=CC(=O)C=C14,FAOZLTXFLGPHNG-UHFFFAOYSA-N,-4.1
prometryn,,COP(=S)(OC)SCN2C(=O)c1ccccc1C2=O,LMNZTLDVJIUSHT-UHFFFAOYSA-N,-4.1
Pentyl 3-bromo-4-hydroxybenzoate,,CCCCCOC(=O)C1=CC(Br)=C(O)C=C1,FXNNQKLPLOXENK-UHFFFAOYSA-N,-4.1
2-methyl-2-[(2-methylbutan-2-yl)peroxy]butane,,CCC(C)(C)OOC(C)(C)CC,JJRDRFZYKKFYMO-UHFFFAOYSA-N,-4.100435339
ethyl decanoate,,CCCCCCCCCC(=O)OCC,RGXWDWUGBIJHDO-UHFFFAOYSA-N,-4.1006
Aldadiene,,CC12CCC(=O)C=C1C=CC3C2CCC4(C)C3CCC45CCC(=O)O5,UJVLDDZCTMKXJK-UHFFFAOYSA-N,-4.100706158
tetrapropyl thiopyrophosphorate,,CCCO[P](=S)(OCCC)O[P](=S)(OCCC)OCCC,IIDFEIDMIKSJSV-UHFFFAOYSA-N,-4.1009
Amprenavir,CAS161814-49-9,CC(C)CN(C[C@@H](O)[C@H](Cc1ccccc1)NC(=O)O[C@H]1CCOC1)S(=O)(=O)c1ccc(N)cc1,YMARZQAQMVYCKC-OEMFJLHTSA-N,-4.1
strontium(2+) ion 3-hydroxy-4-[(E)-2-(4-methyl-2-sulfonatophenyl)diazen-1-yl]naphthalene-2-carboxylate,,[Sr++].Cc1ccc(N\N=C\2C(=O)C(=Cc3ccccc23)C([O-])=O)c(c1)[S]([O-])(=O)=O,XUCZYOLXABAZRV-LRZQPWDCSA-L,-4.105730153
hydrastine,,COc1ccc2C(OC(=O)c2c1OC)C3N(C)CCc4cc5OCOc5cc34,JZUTXVTYJDCMDU-UHFFFAOYSA-N,-4.1065
pindone,,CC(C)(C)C(=O)C1C(=O)c2ccccc2C1=O,RZKYEQDPDZUERB-UHFFFAOYSA-N,-4.107
"benzoic acid, 2-(acetyloxy)-, phenyl ester",,CC(=O)Oc1ccccc1C(=O)Oc2ccccc2,PSBAIJVSCTZDDB-UHFFFAOYSA-N,-4.1077
thiophanate-methyl,,COC(=O)NC(=S)Nc1ccccc1NC(=S)NC(=O)OC,QGHREAKMXXNCOA-UHFFFAOYSA-N,-4.1097
4-tolyl-kni-727,,CC1=CC=C(C=C1)C(=O)NC(CC2=CC=CC=C2)C(O)C(=O)N3CSC(C)(C)C3C(=O)NC(C)(C)C,YTCOHNPTVJAKQB-UHFFFAOYSA-N,-4.11
4-methoxyphenylkni-727,,COC1=CC=C(C=C1)C(=O)NC(CC2=CC=CC=C2)C(O)C(=O)N3CSC(C)(C)C3C(=O)NC(C)(C)C,BGYMYZNZTXVIHI-UHFFFAOYSA-N,-4.11
siduron,,CC1CCCCC1NC(=O)Nc2ccccc2,JXVIIQLNUPXOII-UHFFFAOYSA-N,-4.1108
cadmium,,[Cd++],WLZRMCYVCSSEQC-UHFFFAOYSA-N,-4.111293422
"1-naphthoic acid, 4-ethoxy-",,CCOc1ccc(C(O)=O)c2ccccc12,AOKDTARDWHVNDE-UHFFFAOYSA-N,-4.1122
RTI 12,,CCN2c1nc(Cl)ccc1N(C)C(=O)c3cccnc23 ,YSEMEGXOKULCML-UHFFFAOYSA-N,-4.114
Sulfinpyrazone,CAS57-96-5,O=C1C(CCS(=O)c2ccccc2)C(=O)N(c2ccccc2)N1c1ccccc1,MBGGBVCUIVRRBF-UHFFFAOYSA-N,-4.12
[disulfanediylbis(carbonothioylnitrilo)]tetramethane,,CN(C)C(=S)SSC(=S)N(C)C,KUAZQDVKQLNFPE-UHFFFAOYSA-N,-4.116196121
"1,1-dimethylpropyl 2-(ethylperoxy)hexanoate",,CCCCC(CC)C(=O)OOC(C)(C)CC,IFXDUNDBQDXPQZ-UHFFFAOYSA-N,-4.116871778
"1-butanone, 1-(4-fluorophenyl)-4-(4-hydroxy-4-ph",,OC1(CCN(CCCC(=O)c2ccc(F)cc2)CC1)c3ccccc3,FEFFZKPQSVTBAY-UHFFFAOYSA-N,-4.1183
dimepiperate,,CC(C)(SC(=O)N1CCCCC1)c2ccccc2,BWUPSGJXXPATLU-UHFFFAOYSA-N,-4.1196
Gemfibrozil,CAS25812-30-0,Cc1ccc(C)c(OCCCC(C)(C)C(=O)O)c1,HEMJJKBWTPKOJG-UHFFFAOYSA-N,-4.12
"2-(phenylamino)-3,7-dihydropurin-6-one",,O=C1NC(NC2=CC=CC=C2)=NC2=C1N=CN2,JDCULXHGRMPCAM-UHFFFAOYSA-N,-4.12
tert-butyl (1-(4-chloro)phenylsulfonyl) cyclopro,,CC(C)(C)OC(=O)C1(CC1)[S](=O)(=O)c2ccc(Cl)cc2,GMJAXKKUTHHHMD-UHFFFAOYSA-N,-4.1206
prasterone,,C[C@]12CC[C@H]3[C@@H](CC=C4C[C@@H](O)CC[C@]34C)[C@@H]1CCC2=O,FMGSKLZLMKYGDP-USOAJAOKSA-N,-4.122
"2-ethyl-3-hydroxy-2-[2-(6-methoxy-3,4-dihydronaphthalen-1(2H)-ylidene)ethyl]cyclopentanone",,CCC1(CC=C2CCCc3cc(OC)ccc23)C(O)CCC1=O,ZXYHLOFRRMDJAQ-UHFFFAOYSA-N,-4.122768724
isobutylbenzene,,CC(C)Cc1ccccc1,KXUHSQYYJYAXGZ-UHFFFAOYSA-N,-4.1235
alpha-peltatin,,COc1cc(cc(OC)c1O)[C@H]2[C@@H]3[C@H](COC3=O)Cc4c(O)c5OCOc5cc24,JGGWNGRBXJWAOC-HKJPBSJPSA-N,-4.1254
2-[n-(2-Hydroxyethyl)-3-methyl-4-phenyldiazenylanilino]ethanol,,Cc1cc(ccc1N=Nc2ccccc2)N(CCO)CCO,IXKVXPGDWDXXQM-UHFFFAOYSA-N,-4.1254
"1,1-dimethoxycyclododecane",,COC1(CCCCCCCCCCC1)OC,XXNCXSHVDVCRKB-UHFFFAOYSA-N,-4.125654352
"benzenamine, 4-[(4-chlorophenyl)sulfonyl]-",,Nc1ccc(cc1)[S](=O)(=O)c2ccc(Cl)cc2,RWIUBJDOESNTFZ-UHFFFAOYSA-N,-4.1267
Daunorubicin,CAS20830-81-3,COc1cccc2c1C(=O)c1c(O)c3c(c(O)c1C2=O)C[C@@](O)(C(C)=O)C[C@@H]3O[C@H]1C[C@H](N)[C@H](O)[C@H](C)O1,STQGQHZAVUOBTE-VGBVRHCVSA-N,-4.13
triamcinolone diacetate,,CC(=O)OCC(=O)[C@@]1(O)[C@@H](C[C@H]2[C@@H]3CCC4=CC(=O)C=C[C@]4(C)[C@@]3(F)[C@@H](O)C[C@]12C)OC(C)=O,XGMPVBXKDAHORN-RBWIMXSLSA-N,-4.1297
"4-isothiocyanato-n,n-dimethylaniline",,CN(C)C1=CC=C(C=C1)N=C=S,HRDJPEMAGYHSJR-UHFFFAOYSA-N,-4.13
n1-(4-chlorophenyl)sulfanilamide,,NC1=CC=C(C=C1)[S](=O)(=O)NC2=CC=C(Cl)C=C2,RBJGYDGKXTYSSL-UHFFFAOYSA-N,-4.13
triamcinolone  diacetate,,CC(=O)OCC(=O)C1(O)C(CC2C3CCC4=CC(=O)C=CC4(C)C3(F)C(O)CC12C)OC(C)=O,XGMPVBXKDAHORN-UHFFFAOYSA-N,-4.13
midazolam,,CC1=NC=C2CN=C(C3=C(F)C=CC=C3)C4=C(C=CC(=C4)Cl)[N]12,DDLIGBOFAVUZHB-UHFFFAOYSA-N,-4.13
quinalphos,,CCO[P](=S)(OCC)Oc1cnc2ccccc2n1,JYQUHIFYBATCCY-UHFFFAOYSA-N,-4.1322
pirimiphos-methyl,,CCN(CC)c1nc(C)cc(O[P](=S)(OC)OC)n1,QHOQHJPRIBSPCY-UHFFFAOYSA-N,-4.133
"3-ethoxy-1,1,5-trimethylcyclohexane",,CCOC1CC(C)CC(C)(C)C1,JVBNHJDWWBSWLE-UHFFFAOYSA-N,-4.134294434
2-methyl-1-phenylpropan-2-yl butanoate,,CCCC(=O)OC(C)(C)Cc1ccccc1,SHSGYHAHMQLYRB-UHFFFAOYSA-N,-4.135942613
"1,4-dimethylnaphthalene",,Cc1ccc(C)c2ccccc12,APQSQLNWAIULLK-UHFFFAOYSA-N,-4.1369
Phenytoin Sodium,CAS630-93-3,O=C1NC(c2ccccc2)(c2ccccc2)C(=O)N1[Na],FJPYVLNWWICYDW-UHFFFAOYSA-M,-4.14
tungsten(4+) ion disulfanediide,,S=[W]=S,ITRNXVSDJBHYNJ-UHFFFAOYSA-N,-4.139133643
acetaminophen hexanoate,,CCCCCC(=O)OC1=CC=C(NC(C)=O)C=C1,GTOMOLIKAAXJAC-UHFFFAOYSA-N,-4.14
4-benzoylaminophenyl  acetate;  acetic acid 4-benzoylaminophenyl ester,,CC(=O)OC1=CC=C(NC(=O)C2=CC=CC=C2)C=C1,MBMANTPXLYUUGC-UHFFFAOYSA-N,-4.14
"4-(4-bromo-2-fluorophenylamino)-5-fluoro-1-methyl-6-oxo-1,6-dihydropyridine-3-carboxamide",,CN1C=C(C(N)=O)C(=C(F)C1=O)NC2=C(F)C=C(Br)C=C2,LNCZLEZOTUBASE-UHFFFAOYSA-N,-4.14
hydroxy-[8-[hydroxy(oxo)azaniumyl]oxyoctoxy]-oxoazanium,,C(CCCCO[N+](=O)O)CCCO[N+](=O)O,PTXHFDHJEHDTON-UHFFFAOYSA-N,-4.14
decahydronaphthalene,,C1CCC2CCCCC2C1,NNBZCPXTIHJBJL-UHFFFAOYSA-N,-4.140677705
pentacalcium hydroxide triphosphate,,[OH-].[Ca++].[Ca++].[Ca++].[Ca++].[Ca++].[O-][P]([O-])([O-])=O.[O-][P]([O-])([O-])=O.[O-][P]([O-])([O-])=O,XYJRXVWERLGGKC-UHFFFAOYSA-D,-4.141900896
2-chloronaphthalene,,Clc1ccc2ccccc2c1,CGYGETOMCSJHJU-UHFFFAOYSA-N,-4.143
Simvastatin,CAS79902-63-9,CCC(C)(C)C(=O)O[C@H]1C[C@@H](C)C=C2C=C[C@H](C)[C@H](CC[C@@H]3C[C@@H](O)CC(=O)O3)[C@H]21,RYMZZMVNJRMUDD-HGQWONQESA-N,-4.14
2-ethylhexyl nitrate,,CCCCC(CC)CO[N+]([O-])=O,NKRVGWFEFKCZAP-UHFFFAOYSA-N,-4.146693491
"2-furansulfonamide, 4-(4-methoxybenzoyl)-",,COc1ccc(cc1)C(=O)c2coc(c2)[S](N)(=O)=O,OIEIIZQFSICKJF-UHFFFAOYSA-N,-4.1481
fluphenazine,,OCCN1CCN(CCCN2c3ccccc3Sc4ccc(cc24)C(F)(F)F)CC1,PLDUPXSUYLZYBN-UHFFFAOYSA-N,-4.1488
(9E)-N-[3-(dimethylamino)propyl]octadec-9-enamide,,CCCCCCCC/C=C/CCCCCCCC(=O)NCCCN(C)C,UCWYGNTYSWIDSW-VAWYXSNFSA-N,-4.149259389
n1-(3-chloro-2-methoxyphenyl)sulfanilamide; 1-sulfanilamido-3-chloro-2-methoxybenzene; 1-sulfa-3-chloro-2-methoxybenzene,,COC1=C(N[S](=O)(=O)C2=CC=C(N)C=C2)C=CC=C1Cl,GUQMUFCFDMUPMN-UHFFFAOYSA-N,-4.15
"N-[4-[(4-methyl-1,3-thiazol-2-yl)sulfamoyl]phenyl]acetamide",,CC(=O)NC1=CC=C(S(=O)(=O)NC2=NC(C)=CS2)C=C1,UTTXCVWQZVYQRZ-UHFFFAOYSA-N,-4.15
5-hexoxy-2-[(~{Z})-~{N}-hydroxy-~{C}-methylcarbonimidoyl]phenol,,CCCCCCOC1=CC(O)=C(C(C)=NO)C=C1,JIKHZDYOCIZVJX-UHFFFAOYSA-N,-4.15
t-Pentylbenzene,,CC(C)(C)Cc1ccccc1,CJGXJKVMUHXVHL-UHFFFAOYSA-N,-4.15
piperophos,,CCCO[P](=S)(OCCC)SCC(=O)N1CCCCC1C,UNLYSVIDNRIVFJ-UHFFFAOYSA-N,-4.1504
4-[(4-amino-3-methylphenyl)methyl]-2-methylaniline,,Cc1cc(Cc2ccc(N)c(C)c2)ccc1N,WECDUOXQLAIPQW-UHFFFAOYSA-N,-4.150608709
"5-{[2-(2-butoxyethoxy)ethoxy]methyl}-6-propyl-2H-1,3-benzodioxole",,CCCCOCCOCCOCc1cc2OCOc2cc1CCC,FIPWRIJSWJWJAI-UHFFFAOYSA-N,-4.151088918
vinyl 2-ethylhexanoate,,CCCCC(CC)C(=O)OC=C,IGBZOHMCHDADGY-UHFFFAOYSA-N,-4.151910976
cyclooctane,,C1CCCCCCC1,WJTCGQSWYFHTAC-UHFFFAOYSA-N,-4.1524
Iloperidone,CAS133454-47-4,COc1cc(C(C)=O)ccc1OCCCN1CCC(c2noc3cc(F)ccc23)CC1,XMXHEBAFVSFQEX-UHFFFAOYSA-N,-4.15
"dimethyl 2,5-dioxocyclohexane-1,4-dicarboxylate",,COC(=O)C1CC(=O)C(CC1=O)C(=O)OC,MHKKFFHWMKEBDW-UHFFFAOYSA-N,-4.154195657
perphenazine,,OCCN1CCN(CCCN2c3ccccc3Sc4ccc(Cl)cc24)CC1,RGCVKNLCSQQDEP-UHFFFAOYSA-N,-4.1546
,CHEMBL2164380,CC(CC#N)N1C(C(=O)NCc2ccc(OC(F)(F)F)cc2)c3ccccc3C1=O,FDVHTMPORAQXDN-UHFFFAOYSA-N,-4.154641778
1-heptanethiol,,CCCCCCCS,VPIAKHNXCOTPAY-UHFFFAOYSA-N,-4.1549
difenoxuron,,COc1ccc(Oc2ccc(NC(=O)N(C)C)cc2)cc1,AMVYOVYGIJXTQB-UHFFFAOYSA-N,-4.1558
"(4-methoxy-2,2-dimethyl-3a,4,6,6a-tetrahydrofuro[3,4-d][1,3]dioxol-6-yl)methyl 4-methylbenzenesulfonate",,COC1OC(CO[S](=O)(=O)c2ccc(C)cc2)C3OC(C)(C)OC13,IAPMZKRZMYQZSW-UHFFFAOYSA-N,-4.156442533
epiandrosterone,,C[C@]12CC[C@H](O)C[C@@H]1CC[C@@H]3[C@@H]2CC[C@@]4(C)[C@H]3CCC4=O,QGXBDMJGAMFCBF-LUJOEAJASA-N,-4.1577
bupirimate,,CCCCc1c(C)nc(NCC)nc1O[S](=O)(=O)N(C)C,DSKJPMWIHSOYEA-UHFFFAOYSA-N,-4.1579
piroxicam,,CN1C(=C(/O)Nc2ccccn2)/C(=O)c3ccccc3[S]1(=O)=O,LDJVNWFKNMYYNT-FYWRMAATSA-N,-4.1586
hydrogen sulfide; manganese,,S.[Mn],TWJXYBSUGSKHPM-UHFFFAOYSA-N,-4.159911756
triforine,,ClC(Cl)(Cl)C(NC=O)N1CCN(CC1)C(NC=O)C(Cl)(Cl)Cl,RROQIUMZODEXOR-UHFFFAOYSA-N,-4.16
"2,2-Dibutyl-N-hydroxyhexanamide",,CCCCC(CCCC)(CCCC)C(=O)NO,SYBUTYMIJPIFDK-UHFFFAOYSA-N,-4.16
"17-hydroxy-17-(1-hydroxyethyl)-10,13-dimethyl-2,6,7,8,9,11,12,14,15,16-decahydro-1H-cyclopenta[a]phenanthren-3-one",,CC(O)C1(O)CCC2C3CCC4=CC(=O)CCC4(C)C3CCC21C,MASCESDECGBIBB-UHFFFAOYSA-N,-4.16
Digoxin,,CC1OC(OC2C(O)CC(OC3C(O)CC(OC4CCC5(C)C(CCC6C5CC(O)C5(C)C(C7=CC(=O)OC7)CCC65O)C4)OC3C)OC2C)CC(O)C1O,LTMHDMANZUZIPE-UHFFFAOYSA-N,-4.16
,CHEMBL2164382,FC(F)(F)Oc1ccc(CNC(=O)C2N(CCc3cccnc3)C(=O)c4ccccc24)cc1,XXEPMKVOWBWDQM-UHFFFAOYSA-N,-4.160879696
chlorflurecol,,OC(=O)C1(O)c2ccccc2c3ccc(Cl)cc13,SVOAUHHKPGKPQK-UHFFFAOYSA-N,-4.161
1-ethylnaphthalene,,CCc1cccc2ccccc12,ZMXIYERNXPIYFR-UHFFFAOYSA-N,-4.1644
perchloropropylene,,ClC(Cl)=C(Cl)C(Cl)(Cl)Cl,VFDYKPARTDCDCU-UHFFFAOYSA-N,-4.1651
1-(isobutoxycarbonyl)thiabendazole; 1-isobutoxycarbonyl-2-(thiazol-4-yl)benzimidazole,,CC(C)COC(=O)[N]1C2=C(C=CC=C2)N=C1C3=CSC=N3,APCDMDJMHYSEPA-UHFFFAOYSA-N,-4.17
n-isonicotinoyl-n'-decanoylhydrazine;  n-decanoyl-n'-isonicotinoylhydrazine,,CCCCCCCCCC(=O)NNC(=O)C1=CC=NC=C1,MFLFKRHHEIABRC-UHFFFAOYSA-N,-4.17
"tolcapone;  3,4-dihydroxy-4'-methyl-5-nitrobenzophenone",,CC1=CC=C(C=C1)C(=O)C2=CC(=C(O)C(=C2)O)[N+]([O-])=O,MIQPIUSUKVNLNT-UHFFFAOYSA-N,-4.17
diphenylmethane,,c1ccccc1Cc2ccccc2,CZZYITDELCSZES-UHFFFAOYSA-N,-4.17
3-(propan-2-ylideneamino)-1-(9H-xanthen-9-yl)urea,,CC(C)=NNC(=O)NC1C2=C(C=CC=C2)OC2=C1C=CC=C2,UOTJSUSNUMZRJG-UHFFFAOYSA-N,-4.17
"2,4-Dichloro-n-hydroxy-n-(2-methylphenyl)benzamide",,CC1=C(N(O)C(=O)C2=C(Cl)C=C(Cl)C=C2)C=CC=C1,QBHZLLSMZFZZCK-UHFFFAOYSA-N,-4.17
"7-(3-amino-2-methylazetidin-1-yl)-1-cyclopropyl-6,8-difluoro-4-oxoquinoline-3-carboxylic acid",,CC1C(N)CN1C1=C(F)C2=C(C=C1F)C(=O)C(C(=O)O)=CN2C1CC1,ORHUFIOIUIPUTP-UHFFFAOYSA-N,-4.17
isooctyl acrylate,,CC(C)CCCCCOC(=O)C=C,DXPPIEDUBFUSEZ-UHFFFAOYSA-N,-4.170655466
"5-isocyanato-1-(isocyanatomethyl)-1,3,3-trimethylcyclohexane",,CC1(C)CC(CC(C)(CN=C=O)C1)N=C=O,NIMLQBUJDJZYEJ-UHFFFAOYSA-N,-4.170824759
4-[4-(propan-2-yloxy)benzenesulfonyl]phenol,,CC(C)Oc1ccc(cc1)[S](=O)(=O)c2ccc(O)cc2,ZTILAOCGFRDHBH-UHFFFAOYSA-N,-4.171445785
niflumic acid,,OC(=O)c1cccnc1Nc2cccc(c2)C(F)(F)F,JZFPYUNJRRFVQU-UHFFFAOYSA-N,-4.1718
"2-ethyl-2-[2-(6-methoxy-3,4-dihydro-2H-naphthalen-1-ylidene)ethyl]cyclopentane-1,3-dione",,CCC1(C\C=C2/CCCc3cc(OC)ccc23)C(=O)CCC1=O,OMXFYKCGCDGYNC-SDNWHVSQSA-N,-4.172504242
4-(propan-2-yl)cyclohexyl propanoate,,CCC(=O)OC1CCC(CC1)C(C)C,FFEOEKMMMQFWBO-UHFFFAOYSA-N,-4.173484214
,CHEMBL1209426,O=S(=O)(NCC(N1CCCCCC1)c2ccccc2)c3ccccc3,KCZQVDUNRPTDJR-UHFFFAOYSA-N,-4.173527062
,CHEMBL2180037,CC#Cc1cncc(c1)c2cccc(c2)C3(N=C(C)C(=N3)N)C4CC4,TWHSRVVFCICXII-UHFFFAOYSA-N,-4.173606109
benzyl benzoate,,O=C(OCc1ccccc1)c2ccccc2,SESFRYSPDFLNCH-UHFFFAOYSA-N,-4.177624494
1-(n-octylcarbamoyl)-5-fluorouracil;  1-octylaminocarbonyl-5-fluorouracil,,CCCCCCCCNC(=O)N1C=C(F)C(=O)NC1=O,JNQHBKLRBXQHJO-UHFFFAOYSA-N,-4.18
"4-amino-N-(5-methyl-8-propan-2-yl-5,6,7,8-tetrahydroquinazolin-2-yl)benzenesulfonamide",,CC1CCC(C(C)C)C2=C1C=NC(NS(=O)(=O)C1=CC=C(N)C=C1)=N2,SPWMJDSWMVZTIE-UHFFFAOYSA-N,-4.18
chlorflurecol methyl,,COC(=O)C1(O)c2ccccc2c3ccc(Cl)cc13,LINPVWIEWJTEEJ-UHFFFAOYSA-N,-4.1836
tributyl-2-thiourea,,CCCCNC(=S)N(CCCC)CCCC,UDYXMTORTDACTG-UHFFFAOYSA-N,-4.184066506
ethoxysulfuron,,CCOc1ccccc1O[S](=O)(=O)NC(=O)Nc2nc(OC)cc(OC)n2,UWVKRNOCDUPIDM-UHFFFAOYSA-N,-4.1853
,CHEMBL2335898,C[C@@H](NC(=O)C1CCCCN1C)c2ccc(Nc3ncc4cc(ccc4n3)c5ccncc5)cc2,DNLHCDOKNZPOJU-ICCFGIFFSA-N,-4.186777609
imipramine,,CN(C)CCCN1c2ccccc2CCc3ccccc13,BCGWQEUPMDMJNV-UHFFFAOYSA-N,-4.187
"1-(2,6,6-trimethylcyclohex-1-en-1-yl)pent-1-en-3-one",,CCC(=O)/C=C/C1=C(C)CCCC1(C)C,LMWNGLDCJDIIBR-CMDGGOBGSA-N,-4.187455475
2-phenylethyl 2-phenylacetate,,O=C(Cc1ccccc1)OCCc2ccccc2,ZOZIRNMDEZKZHM-UHFFFAOYSA-N,-4.188747793
"benzene, 1-bromo-2-(1-methylethyl)-",,CC(C)c1ccccc1Br,LECYCYNAEJDSIL-UHFFFAOYSA-N,-4.1898
"4-(4-bromo-2-fluorophenylamino)-5-fluoro-1-methyl-6-oxo-1,6-dihydropyridine-3-carboxylic acid ethoxyamide",,CCONC(=O)C1=CN(C)C(=O)C(=C1NC2=CC=C(Br)C=C2F)F,GSLVKBRGRSHUAU-UHFFFAOYSA-N,-4.19
triforine,,ClC(Cl)(Cl)C(NC=O)N1C=CN(C=C1)C(NC=O)C(Cl)(Cl)Cl ,XEOXEBNPBKUGJH-UHFFFAOYSA-N,-4.19
phenazopyridine,,c1ccc(cc1)\N=N\c1c(nc(cc1)N)N,QPFYXYFORQJZEC-FOCLMDBBSA-N,-4.19
,CHEMBL3632792,CC(C)(C)c1nc(c2ncn[nH]2)c3c(N)c(C#N)c(N)nc3n1,PWYBEDTYUJMQMU-UHFFFAOYSA-N,-4.190180529
"1,2-bis(2-methylpropyl) cyclohexane-1,2-dicarboxylate",,CC(C)COC(=O)C1CCCCC1C(=O)OCC(C)C,QUKHPBOCBWDYMW-UHFFFAOYSA-N,-4.19123514
"1,1'-sulfonyldibenzene",,O=[S](=O)(c1ccccc1)c2ccccc2,KZTYYGOKRVBIMI-UHFFFAOYSA-N,-4.192879941
butachlor,,CCCCOCN(C(=O)CCl)c1c(CC)cccc1CC,HKPHPIREJKHECO-UHFFFAOYSA-N,-4.193
2-methyl-1-[4-(methylsulfanyl)phenyl]-2-(morpholin-4-yl)propan-1-one,,CSc1ccc(cc1)C(=O)C(C)(C)N2CCOCC2,LWRBVKNFOYUCNP-UHFFFAOYSA-N,-4.193381143
,CHEMBL1682826,O=C1CCOc2nc(OCc3ccccc3)ccc12,FEUUEDWGFHWSKC-UHFFFAOYSA-N,-4.193512904
"8-quinolinol, 5,7-dibromo-",,Oc1c(Br)cc(Br)c2cccnc12,ZDASUJMDVPTNTF-UHFFFAOYSA-N,-4.1938
isofenphos,,CCO[P](=S)(NC(C)C)Oc1ccccc1C(=O)OC(C)C,HOQADATXFBOEGG-UHFFFAOYSA-N,-4.1939