Name,ID,SMILES,inchi,LogS
"7-methoxy-1,3,3~{a},4,5,6-hexahydrobenzo[de]isoquinoline-2-carboximidamide",,COC1=C2CCCC3CN(C(=N)N)CC(=C23)C=C1,QXMMQNXWHZTAPW-UHFFFAOYSA-N,-1.22
"2,4-dimethyl-3-pentanol",,CC(C)C(O)C(C)C,BAYAKMPRFGNNFW-UHFFFAOYSA-N,-1.2201
"2-tert-butylbenzene-1,4-diol",,CC(C)(C)c1cc(O)ccc1O,BGNXCDMCOKJUMV-UHFFFAOYSA-N,-1.220683278
"1-propanol, 2,3-dimercapto-, 1-acetate",,CC(=O)OCC(S)CS,JVYNLQQSMKTICB-UHFFFAOYSA-N,-1.2208
"disodium 2,2'-(azodi-p-phenylene)bis[6-methylbenzothiazole-7-sulphonate]",,[Na+].[Na+].Cc1ccc2nc(sc2c1[S]([O-])(=O)=O)c3ccc(cc3)N=Nc4ccc(cc4)c5sc6c(ccc(C)c6[S]([O-])(=O)=O)n5,GRUAQEWEHJNSDG-UHFFFAOYSA-L,-1.222309624
4-aminobenzamide,,NC(=O)c1ccc(N)cc1,QIKYZXDTTPVVAC-UHFFFAOYSA-N,-1.225545386
4-methoxy-2-nitroaniline,,COc1ccc(N)c(c1)[N+]([O-])=O,QFMJFXFXQAFGBO-UHFFFAOYSA-N,-1.225702037
"2h-pyran-2,4-(3h)-dione, 3-acetyl-6-methyl-",,CC(=O)C1C(=O)OC(=CC1=O)C,PGRHXDWITVMQBC-UHFFFAOYSA-N,-1.226
benzyldimethylamine,,CN(C)Cc1ccccc1,XXBDWLFCJWSEKW-UHFFFAOYSA-N,-1.227918826
4-hydroxy-3-methoxybenzaldehyde,,COc1cc(C=O)ccc1O,MWOOGOJBHIARFG-UHFFFAOYSA-N,-1.228026593
"butanamide, 4-(benzoyloxy)-n,n-dimethyl-",,CN(C)C(=O)CCCOC(=O)c1ccccc1,FNROXVCRPXYLRT-UHFFFAOYSA-N,-1.2286
"acid D,L-aspart",,NC(CC(O)=O)C(O)=O,CKLJMWTZIZZHCS-UHFFFAOYSA-N,-1.229318187
albuterol,,CC(C)(C)NCC(O)c1ccc(O)c(CO)c1,NDAUXUAQIAJITI-UHFFFAOYSA-N,-1.2298
"(2R,3R,4S,5R)-2-(6-hydroxy-9H-purin-9-yl)-5-(hydroxymethyl)oxolane-3,4-diol",,OCC1OC(C(O)C1O)n2cnc3C(=O)N=CNc23,UGQMRVRMYYASKQ-UHFFFAOYSA-N,-1.229848644
5-ethyl-5-methylbarbituric  acid,,CCC1(C)C(=O)NC(=O)NC1=O,RCFRTWDBBMGLGK-UHFFFAOYSA-N,-1.23
3-hydroxybenzaldehyde,,OC1=CC=CC(=C1)C=O,IAVREABSGIHHMO-UHFFFAOYSA-N,-1.23
acetylmandelic acid (rac.);  alpha-acetoxyphenylacetic (rac.),,CC(=O)OC(C(O)=O)C1=CC=CC=C1,OBCUSTCTKLTMBX-UHFFFAOYSA-N,-1.23
"2,3-dichloro-4,6-disulfamoyl-1-glycylglycylamidobenzene",,NCC(=O)NCC(=O)NC1=C(Cl)C(=C(C=C1[S](N)(=O)=O)[S](N)(=O)=O)Cl,NFGGAIZJSZLPOX-UHFFFAOYSA-N,-1.23
2-(benzoylamino)-3-hydroxybutanoic acid,,CC(O)C(NC(=O)C1=CC=CC=C1)C(=O)O,IOQIWWTVXOPYQR-UHFFFAOYSA-N,-1.23
2-(carboxymethylsulfanyl)-2-phenylacetic acid,,O=C(O)CSC(C(=O)O)C1=CC=CC=C1,AIUNWFBYULOSRS-UHFFFAOYSA-N,-1.23
2-[4-(2-hydroxyethoxy)phenoxy]ethanol,,OCCOC1=CC=C(OCCO)C=C1,WTPYFJNYAMXZJG-UHFFFAOYSA-N,-1.23
"2-[(2,2-dimethyl-1,3-dioxolan-4-yl)methoxycarbonyl]benzoic acid",,CC1(C)OCC(COC(=O)C2=C(C(=O)O)C=CC=C2)O1,PCLHPOXWGFYRRM-UHFFFAOYSA-N,-1.23
"benzeneacetic acid, .alpha.-(acetyloxy)-, (r)-",,CC(=O)O[C@@H](C(O)=O)c1ccccc1,OBCUSTCTKLTMBX-SECBINFHSA-N,-1.2313
decasodium 2-[(E)-2-{2-sulfonato-4-[(E)-2-{3-sulfonato-4-[(E)-2-{2-sulfonato-4-[(E)-2-{4-[(E)-2-(4-sulfonatophenyl)diazen-1-yl]phenyl}diazen-1-yl]phenyl}ethenyl]phenyl}diazen-1-yl]phenyl}ethenyl]-5-[(E)-2-{4-[(E)-2-(4-sulfonatophenyl)diazen-1-yl]phenyl}diazen-1-yl]benzene-1-sulfonate 2-[(E)-2-{2-sulfonato-4-[(E)-2-{4-[(E)-2-(4-sulfonatophenyl)diazen-1-yl]phenyl}diazen-1-yl]phenyl}ethenyl]-5-[(E)-2-{4-[(E)-2-(4-sulfonatophenyl)diazen-1-yl]phenyl}diazen-1-yl]benzene-1-sulfonate,,[Na+].[Na+].[Na+].[Na+].[Na+].[Na+].[Na+].[Na+].[Na+].[Na+].[O-][S](=O)(=O)c1ccc(cc1)N=Nc2ccc(cc2)N=Nc3ccc(\C=C\c4ccc(cc4[S]([O-])(=O)=O)N=Nc5ccc(cc5)N=Nc6ccc(cc6)[S]([O-])(=O)=O)c(c3)[S]([O-])(=O)=O.[O-][S](=O)(=O)c7ccc(cc7)N=Nc8ccc(cc8)N=Nc9ccc(/C=C/c%10ccc(cc%10[S]([O-])(=O)=O)N=Nc%11ccc(\C=C\c%12ccc(cc%12[S]([O-])(=O)=O)N=Nc%13ccc(cc%13)N=Nc%14ccc(cc%14)[S]([O-])(=O)=O)c(c%11)[S]([O-])(=O)=O)c(c9)[S]([O-])(=O)=O,MVVIVTYJFSLIBC-QISMBRTESA-D,-1.231545685
2-amino-5-acetamidobenzene-1-sulfonic acid,,CC(=O)Nc1ccc(N)c(c1)[S](O)(=O)=O,PHRVJZNHPVJYOM-UHFFFAOYSA-N,-1.231856439
"3-pyridinecarbonitrile, 6-chloro-1,2-dihydro-4-h",,OC1=C(C#N)C(=O)C=C(Cl)N1,RXXVHWHDEKSPRL-UHFFFAOYSA-N,-1.2319
sodium 4-[(4-methyl-3-nitrobenzoyl)amino]benzenesulfonate,,[Na+].Cc1ccc(cc1[N+]([O-])=O)C(=O)Nc2ccc(cc2)[S]([O-])(=O)=O,YLDIMJOASVRWAO-UHFFFAOYSA-M,-1.232035998
thiophene-2-carboxylic acid,,OC(=O)c1sccc1,QERYCTSHXKAMIS-UHFFFAOYSA-N,-1.2327
trifluoromethane,,FC(F)F,XPDWGBQVDMORPB-UHFFFAOYSA-N,-1.2334
Gabapentin,CAS60142-96-3,NCC1(CC(=O)O)CCCCC1,UGJMXCAKCUNAIE-UHFFFAOYSA-N,-1.23
"dl-alanine, n-[(ethylthio)thioxomethyl]-",,CCSC(=S)NC(C)C(O)=O,WCIZDTOYENGUEG-UHFFFAOYSA-N,-1.2343
5-chlorosalicylic acid,,OC(=O)c1cc(Cl)ccc1O,NKBASRXWGAGQDP-UHFFFAOYSA-N,-1.237
"lithium(1+) ion 4-[(E)-2-(5-amino-3-methyl-1-phenyl-1H-pyrazol-4-yl)diazen-1-yl]-2,5-dichlorobenzene-1-sulfonate",,[Li+].CC1=NN(C(=N)/C1=N/Nc2cc(Cl)c(cc2Cl)[S]([O-])(=O)=O)c3ccccc3,BVMYXDOVMKUHFQ-RPHAVLPSSA-M,-1.237068525
[(2-ethylhexyl)oxy]phosphonic acid,,CCCCC(CC)CO.O[P](O)(O)=O,FZQYZMODYSBPES-UHFFFAOYSA-N,-1.237789285
methyl gallate,,COC(=O)c1cc(O)c(O)c(O)c1,FBSFWRHWHYMIOG-UHFFFAOYSA-N,-1.2399
3-hydroxybenzoic acid,,OC(=O)C1=CC(=CC=C1)O,IJFXRHURBJZNAO-UHFFFAOYSA-N,-1.24
4-amino-n-methyl-benzamide,,CNC(=O)C1=CC=C(N)C=C1,XAGFYNSCWICYPA-UHFFFAOYSA-N,-1.24
n1-isonicotinoyl-n2-hexanoylhydrazine,,CCCCCC(=O)NNC(=O)C1=CC=NC=C1,BSPIUCWIDOJHQH-UHFFFAOYSA-N,-1.24
7-methoxycarbonyltheophylline,,COC(=O)[N]1C=NC2=C1C(=O)N(C)C(=O)N2C,JDORMWPGTNFOBC-UHFFFAOYSA-N,-1.24
4-(Carboxysulfanyl)-3-phenylbutanoic acid,,O=C(O)CC(CSC(=O)O)C1=CC=CC=C1,FQHVIHWJMQMKMB-UHFFFAOYSA-N,-1.24
1-[2-[(1-ethoxy-1-oxo-4-phenylbutan-2-yl)amino]propyl]pyrrolidine-2-carboxylic acid,,CCOC(=O)C(CCC1=CC=CC=C1)NC(C)CN1CCCC1C(=O)O,MTDIDKAIUDTPOH-UHFFFAOYSA-N,-1.24
"nicotinic acid, propyl ester",,CCCOC(=O)c1cccnc1,CLAOCVVWIKGTOP-UHFFFAOYSA-N,-1.2403
ethylbis(propan-2-yl)amine,,CCN(C(C)C)C(C)C,JGFZNNIVVJXRND-UHFFFAOYSA-N,-1.241602263
"1,2,4-thiadiazol-5-amine, 3-methoxy-",,COc1nsc(N)n1,OJCCUUWVUOCZAA-UHFFFAOYSA-N,-1.2427
Gemcitabine Hydrochloride,CAS122111-03-9,C1=CN(C(=O)N=C1N)C2C(C(C(O2)CO)O)(F)F.Cl,OKKDEIYWILRZIA-UHFFFAOYSA-N,-1.24
"3-furancarboxylic acid, tetrahydro-2,2-dimethyl-",,CC1(C)OC(=O)C[C@@H]1C([O-])=O,UZBOWOQARWWIER-SCSAIBSYSA-M,-1.2449
allylidenediacetate,,CC(=O)OC(OC(C)=O)C=C,TXECTBGVEUDNSL-UHFFFAOYSA-N,-1.2449
"2,3,4-pyridinetricarboxylic acid",,OC(=O)c1ccnc(C(O)=O)c1C(O)=O,VOTYOVOSRFKUSM-UHFFFAOYSA-N,-1.245
"3,4-dichlorophenol",,Oc1ccc(Cl)c(Cl)c1,WDNBURPWRNALGP-UHFFFAOYSA-N,-1.2458
"1,4-dioxane, 2,5-dimethoxy-2,5-dimethyl-",,COC1(C)COC(C)(CO1)OC,UUGSNNUEVKTATH-UHFFFAOYSA-N,-1.246
1-hexyl-4-methoxycarbonyl-,,CCCCCCN1CC(CC1=O)C(=O)OC,GJHNTLQYACBIND-UHFFFAOYSA-N,-1.246
"disodium 4,4'-bis[[4-anilino-6-[(2-carbamoylethyl)(2-hydroxyethyl)amino]-1,3,5,-triazin-2-yl]amino]stilbene-2,2'-disulphonate",,[Na+].[Na+].NC(=O)CCN(CCO)c1nc(Nc2ccccc2)nc(Nc3ccc(\C=C\c4ccc(Nc5nc(Nc6ccccc6)nc(n5)N(CCO)CCC(N)=O)cc4[S]([O-])(=O)=O)c(c3)[S]([O-])(=O)=O)n1,KXZDXBWYWMOFCR-YHPRVSEPSA-L,-1.247560996
"2,4-dihydroxypyridine",,OC1=CC(=O)C=CN1,ZEZJPIDPVXJEME-UHFFFAOYSA-N,-1.2498
"3-isobutylpiperazine-2,5-dione",,CC(C)CC1NC(=O)CNC1=O,VQFHWKRNHGHZTK-UHFFFAOYSA-N,-1.25
Alloxan,,O=C(NC(=O)C(=O)C1=O)N1,HIMXGTXNXJYFGB-UHFFFAOYSA-N,-1.25
2-butoxyethanol acetate,,CCCCOCCOC(C)=O,NQBXSWAWVZHKBZ-UHFFFAOYSA-N,-1.2504
"tricyclo[2.2.2.2~1,4~]decane-2,5-diyldimethanol",,OCC1CCC2C3CC(CC3CO)C12,OTLDLKLSNZMTTA-UHFFFAOYSA-N,-1.25150549
Saxagliptin,CAS361442-04-8,N#C[C@@H]1C[C@@H]2C[C@@H]2N1C(=O)[C@@H](N)[C@@]12C[C@@H]3C[C@@H](C[C@@](O)(C3)C1)C2,QGJUIPDUBHWZPV-YQBUGCKMSA-N,-1.25
ethyl 2-methylpropanoate,,CCOC(=O)C(C)C,WDAXFOBOLVPGLV-UHFFFAOYSA-N,-1.255496889
Acetylsalicylic Acid; Aspirin,CAS50-78-2,CC(=O)Oc1ccccc1C(=O)O,BSYNRYMUTXBXSQ-UHFFFAOYSA-N,-1.26
24pyrimidinedione6methyl,,CC1=CC(=O)NC(=O)N1,SHVCSCWHWMSGTE-UHFFFAOYSA-N,-1.2557
1-cyclohexene-1-carboxylic acid,,OC(=O)C1=CCCCC1,NMEZJSDUZQOPFE-UHFFFAOYSA-N,-1.2558
"1,3-propanediol, monobenzoate",,OCCCOC(=O)c1ccccc1,BZISNWGGPWSXTK-UHFFFAOYSA-N,-1.2558
Dextromethorphan Hydrobromide,CAS125-69-9,Br.COc1ccc2c(c1)[C@]13CCCC[C@@H]1[C@H](C2)N(C)CC3,MISZALMBODQYFT-URVXVIKDSA-N,-1.26
"1,2,4,5-benzenetetracarboxylic acid",,OC(=O)c1cc(C(O)=O)c(cc1C(O)=O)C(O)=O,CYIDZMCFTVVTJO-UHFFFAOYSA-N,-1.259
"4-{2-[(2E)-5-[bis(propan-2-yl)amino]-3-methyl-2,3-dihydro-1,3,4-thiadiazol-2-ylidene]hydrazin-1-ylidene}-N,N-dimethylcyclohexa-2,5-dien-1-iminium methyl sulfate",,CO[S]([O-])(=O)=O.CC(C)N(C(C)C)c1sc(N=Nc2ccc(cc2)N(C)C)[n+](C)n1,MLTFWXODZCFGQN-UHFFFAOYSA-M,-1.259698438
ipronidazole,,CC(C)C1=NC=C([N]1C)[N+]([O-])=O,NTAFJUSDNOSFFY-UHFFFAOYSA-N,-1.26
crimidine;  2-chloro-4-dimethylamino-6-methylpyrimidine,,CN(C)C1=C(C)N=C(Cl)N=C1,BWCXPHAQSYYKEB-UHFFFAOYSA-N,-1.26
ethyl 2-hydroxy-2-phenylacetate,,CCOC(=O)C(O)C1=CC=CC=C1,SAXHIDRUJXPDOD-UHFFFAOYSA-N,-1.26
"2-butyl-2-ethylpropane-1,3-diol",,CCCCC(CC)(CO)CO,DSKYSDCYIODJPC-UHFFFAOYSA-N,-1.260334336
7-oxabicyclo[4.1.0]heptan-3-ylmethyl 7-oxabicyclo[4.1.0]heptane-3-carboxylate,,O=C(OCC1CCC2OC2C1)C3CCC4OC4C3,YXALYBMHAYZKAP-UHFFFAOYSA-N,-1.26048469
divinyl ether,,C=COC=C,QYKIQEUNHZKYBP-UHFFFAOYSA-N,-1.261
2-chloro-4-methyl-6-(dimethylamino)pyrimidine,,CN(C)c1cc(C)nc(Cl)n1,HJIUPFPIEBPYIE-UHFFFAOYSA-N,-1.2615
sec-butylacetate,,CC(C)COC(C)=O,GJRQTCIYDGXPES-UHFFFAOYSA-N,-1.2657
Zanamivir,CAS139110-80-8,CC(=O)N[C@@H]1[C@@H](NC(=N)N)C=C(C(=O)O)O[C@H]1[C@H](O)[C@H](O)CO,ARAIBEBZBOPLMB-UFGQHTETSA-N,-1.27
"hexanedioic acid, bis(2-methoxyethyl) ester",,COCCOC(=O)CCCCC(=O)OCCOC,GVRNUDCCYWKHMV-UHFFFAOYSA-N,-1.2665
calcium bis((2Z)-4-oxopent-2-en-2-olate),,[Ca++].CC(=O)[CH-]C(C)=O.CC(=O)[CH-]C(C)=O,XVYOQBDTLDXFQL-UHFFFAOYSA-N,-1.266527042
"acetamide, 2,2,2-tribromo-",,NC(=O)C(Br)(Br)Br,ORCCSQMJUGMAQU-UHFFFAOYSA-N,-1.2668
p-hydroxybenzyl alcohol,,OCc1ccc(O)cc1,BVJSUAQZOZWCKN-UHFFFAOYSA-N,-1.2678
aluminium(3+) ion potassium tetrafluoride,,[F-].[Al+3].[K+],YPYRDLOVFOAQIR-UHFFFAOYSA-M,-1.269901072
Erythromycin stearate,,CCC1OC(=O)C(C)C(OC2CC(C)(OC)C(O)C(C)O2)C(C)C(OC3OC(C)CC(C3O)N(C)C)C(C)(O)CC(C)C(=O)C(C)C(O)C1(C)O,ULGZDMOVFRHVEP-UHFFFAOYSA-N,-1.27
2-benzoyloxy-n-[(tris-hydroxymethyl)methyl]acetamide,,OCC(CO)(CO)NC(=O)COC(=O)C1=CC=CC=C1,MSMHOCZOEWMZOH-UHFFFAOYSA-N,-1.27
l-dopa cyclohexyl ester,,NC(CC1=CC(=C(O)C=C1)O)C(=O)OC2CCCCC2,YBJCMVKVPJXBGR-UHFFFAOYSA-N,-1.27
"(-)-(r)-1,2-bis(2,6-dioxopiperazin-4-yl)propane;  nsc-129943;  icrf 159;  razoxane (+/-)",,CC(CN1CC(=O)NC(=O)C1)N2CC(=O)NC(=O)C2,BMKDZUISNHGIBY-UHFFFAOYSA-N,-1.27
"1-(methylaminoacetylamino)-3-chloro-4,6-disulfamoylbenzene; n-(5-chloro-2,4-disulfamoylphenyl)-2-(methylamino)acetamide",,CNCC(=O)NC1=C(C=C(C(=C1)Cl)[S](N)(=O)=O)[S](N)(=O)=O,QJRULOWVWPKJHB-UHFFFAOYSA-N,-1.27
n4-[2-(nicotinoylamino)pyrimidin-4-yl]sulfanilamide;  2-(nicotinoylamino)-4-(4-sulfamoylphenylamino)pyrimidine,,N[S](=O)(=O)C1=CC=C(NC2=NC(=NC=C2)NC(=O)C3=CC=CN=C3)C=C1,AKFZINZSGJYCMM-UHFFFAOYSA-N,-1.27
"N,N-Dimethyl-4-nitrobenzamide",,CN(C)C(=O)C1=CC=C(C=C1)[N+](=O)[O-],WYOXDERVKORKJN-UHFFFAOYSA-N,-1.27
1-ethyl-1-(4-methoxyphenyl)urea,,CCN(C(N)=O)C1=CC=C(OC)C=C1,YDTHLPPWECZIOH-UHFFFAOYSA-N,-1.27
"2,2,3-trimethyl-3-pentanol",,CCC(C)(O)C(C)(C)C,KLIHWYNSISMOMR-UHFFFAOYSA-N,-1.2708
maleic hydrazide,,O=C1NNC(=O)C=C1,BGRDGMRNKXEXQD-UHFFFAOYSA-N,-1.2714
zinc valerate,,[Zn++].CCCCC([O-])=O.CCCCC([O-])=O,BUDAIZWUWHWZPQ-UHFFFAOYSA-L,-1.2722
"propanoic acid, 2-hydroxy-, octyl ester",,CCCCCCCCOC(=O)C(C)O,SFBIZPBTKROSDE-UHFFFAOYSA-N,-1.2726
s-butylacetate,,CCC(C)OC(C)=O,DCKVNWZUADLDEH-UHFFFAOYSA-N,-1.2727
bromoethene,,BrC=C,INLLPKCGLOXCIV-UHFFFAOYSA-N,-1.275
1-butyne,,CCC#C,KDKYADYSIPSCCQ-UHFFFAOYSA-N,-1.2753
1-ethylpiperidine,,CCN1CCCCC1,HTLZVHNRZJPSMI-UHFFFAOYSA-N,-1.275710522
"hexasodium 4-amino-3-[2-(5-{[4-chloro-6-({3-[2-(sulfonatooxy)ethanesulfonyl]phenyl}amino)-1,3,5-triazin-2-yl]amino}-2-sulfonatophenyl)diazen-1-yl]-6-[2-(1,5-disulfonatonaphthalen-2-yl)diazen-1-yl]-5-hydroxynaphthalene-2,7-disulfonate",,[Na+].[Na+].[Na+].[Na+].[Na+].[Na+].Nc1c(N=Nc2cc(Nc3nc(Cl)nc(Nc4cccc(c4)[S](=O)(=O)CCO[S]([O-])(=O)=O)n3)ccc2[S]([O-])(=O)=O)c(cc5cc(c(N=Nc6ccc7c(cccc7[S]([O-])(=O)=O)c6[S]([O-])(=O)=O)c(O)c15)[S]([O-])(=O)=O)[S]([O-])(=O)=O,CRBABZUVIKGIMW-UHFFFAOYSA-H,-1.277021164
"3-furancarboxylic acid, 2-methyl-5-(1,2,3,4-tetr",,Cc1oc(cc1C([O-])=O)[C@H](O)[C@H](O)[C@H](O)CO,QCJQVLKXEYQMLF-VDAHYXPESA-M,-1.2774
"7-hydroxy-6,7-dihydro-5h-2-sulfamoylthieno[3,2-b]thiopyran-4,4-dioxide",,N[S](=O)(=O)C1=CC2=C(S1)C(O)CC[S]2(=O)=O,LNVGTRNKWNAINT-UHFFFAOYSA-N,-1.28
3-butyryl-5-fluorouracil,,CCCC(=O)N1C(=O)NC=C(F)C1=O,SHSQCPXGYRPQDR-UHFFFAOYSA-N,-1.28
m-Aminoacetophenone,,c1ccc(N)cc1C(=O)C,CKQHAYFOPRIUOM-UHFFFAOYSA-N,-1.28
"6-hydroxy-4a,5,5a,7,8,13a,15,15a,15b,16-decahydro-2H-4,6-methanoindolo[3,2,1-ij]oxepino[2,3,4-de]pyrrolo[2,3-h]quinoline-6-ium-14-one",,C1C[N+]2(CC3=CCOC4CC(=O)N5C6C4C3CC2C61C7=CC=CC=C75)O,RMSRBUAAZSNQJZ-UHFFFAOYSA-N,-1.28
N-diethylsulfinamoyl-N-ethylethanamine,,CCN(CC)S(=O)N(CC)CC,BVVRZSKVUVJJAJ-UHFFFAOYSA-N,-1.28
"2-methyl-5-(1,2,3,4-tetrahydroxybutyl)furan-3-carboxylic acid",,CC1=C(C(=O)O)C=C(C(O)C(O)C(O)CO)O1,QCJQVLKXEYQMLF-UHFFFAOYSA-N,-1.28
"2-(hydroxymethyl)-6-(3-nitrophenoxy)oxane-3,4,5-triol",,C1=CC(=CC(=C1)OC2C(C(C(C(O2)CO)O)O)O)[N+](=O)[O-],VCCMGHVCRFMITI-UHFFFAOYSA-N,-1.28
"disodium 4-amino-5-hydroxy-3-[(E)-2-(4-nitrophenyl)diazen-1-yl]-6-[(E)-2-phenyldiazen-1-yl]naphthalene-2,7-disulfonate",,[Na+].[Na+].Nc1c(N=Nc2ccc(cc2)[N+]([O-])=O)c(cc3C=C(\C(=N/Nc4ccccc4)C(=O)c13)[S]([O-])(=O)=O)[S]([O-])(=O)=O,HKBVRFLHNUEVRO-DWTBGCDMSA-L,-1.2800595
C.i.Basic Violet 11,,[Cl-].CCOC(=O)c1ccccc1c2c3ccc(cc3[o+]c4cc(ccc24)N(CC)CC)N(CC)CC,UOKMUTMXUMSRKM-UHFFFAOYSA-M,-1.280189706
n-methylaniline,,CNc1ccccc1,AFBPFSWMIHJQDM-UHFFFAOYSA-N,-1.2803
1-phenylethan-1-one,,CC(=O)c1ccccc1,KWOLFJPFCHCOCG-UHFFFAOYSA-N,-1.28038684
Azithromycin,CAS83905-01-5,CC[C@H]1OC(=O)[C@H](C)[C@@H](O[C@H]2C[C@@](C)(OC)[C@@H](O)[C@H](C)O2)[C@H](C)[C@@H](O[C@@H]2O[C@H](C)C[C@H](N(C)C)[C@H]2O)[C@@](C)(O)C[C@@H](C)CN(C)[C@H](C)[C@@H](O)[C@]1(C)O,MQTOSJVFKKJCRP-PBUPPNPASA-N,-1.28
"2-propenamide, 3-(2-nitrophenyl)-",,NC(=O)C=Cc1ccccc1[N+]([O-])=O,RASLWNGTMHFPIQ-UHFFFAOYSA-N,-1.2837
Tocainide,CAS41708-72-9,Cc1cccc(C)c1NC(=O)C(C)N,BUJAGSGYPOAWEI-UHFFFAOYSA-N,-1.28
trichlorourethan,,NC(=O)OCC(Cl)(Cl)Cl,QPLJYAKLSCXZSF-UHFFFAOYSA-N,-1.2843
"2,6-dimethyl-4-pyrimidinamine",,Cc1cc(N)nc(C)n1,BJJDXAFKCKSLTE-UHFFFAOYSA-N,-1.2843
3-nitro-2H-pyrazole,,[O-][N+](=O)c1[nH]ncc1,MZRUFMBFIKGOAL-UHFFFAOYSA-N,-1.285472821
dibromomethane,,BrCBr,FJBFPHVGVWTDIP-UHFFFAOYSA-N,-1.285894713
"1,3,5-trichloroisocyanuric acid",,ClN1C(=O)N(Cl)C(=O)N(Cl)C1=O,YRIZYWQGELRKNT-UHFFFAOYSA-N,-1.2871
"2-propenoic acid, 3-bromo-2,3-diiodo-",,OC(=O)C(I)=C(Br)I,BWTBNELHFHOXGK-UHFFFAOYSA-N,-1.2891
"disodium 3-[(E)-2-(5-chloro-2-hydroxyphenyl)diazen-1-yl]-4,5-dihydroxynaphthalene-2,7-disulfonate",,[Na+].[Na+].Oc1ccc(Cl)cc1N\N=C/2C(=O)c3c(O)cc(cc3C=C2[S]([O-])(=O)=O)[S]([O-])(=O)=O,RAIRBURLMTXYPH-WTBAQZMLSA-L,-1.289808658
"propanoic acid, 3-hydroxy-, butyl ester",,CCCCOC(=O)CCO,MENWVOUYOZQBDM-UHFFFAOYSA-N,-1.2899
"octane-1,2-diol",,CCCCCCC(O)CO,AEIJTFQOBWATKX-UHFFFAOYSA-N,-1.289975217
4-ethoxyphenol,,CCOC1=CC=C(O)C=C1,LKVFCSWBKOVHAH-UHFFFAOYSA-N,-1.29
n-hydroxymethyl-3-methoxybenzamide,,COC1=CC=CC(=C1)C(=O)NCO,OVYQBYCEGNAQGH-UHFFFAOYSA-N,-1.29
n1-(4-sulfamoylbenzyl)-n3-[(1-carboxy-2-hydroxy-2-phenyl)ethyl]thiourea; 2-(4-sulfamoylbenzyl)thioureido-3-hydroxy-3-phenylpropanoic acid,,N[S](=O)(=O)C1=CC=C(CNC(=S)NC(C(O)C2=CC=CC=C2)C(O)=O)C=C1,GQACNASLZSJPSN-UHFFFAOYSA-N,-1.29
"2-(n4-glycylglycylsulfanilamido)-1,3,4-thiadiazole-5-sulfonamide",,NCC(=O)NCC(=O)NC1=CC=C(C=C1)[S](=O)(=O)NC2=NN=C(S2)[S](N)(=O)=O,HWIVJEDAPLKYBT-UHFFFAOYSA-N,-1.29
2-ethylsulfanylcarbothioyloxybutanedioic acid,,CCSC(=S)OC(CC(=O)O)C(=O)O,RUJQWWFINDNZLG-UHFFFAOYSA-N,-1.29
4-(4-methylpiperazin-1-yl)butyl 2-(6-methoxynaphthalen-2-yl)propanoate,,COC1=CC=C2C=C(C(C)C(=O)OCCCCN3CCN(C)CC3)C=CC2=C1,GNDPMKMIFIOZEP-UHFFFAOYSA-N,-1.29
Cyclooctanol,,OC1CCCCCCC1,FHADSMKORVFYOS-UHFFFAOYSA-N,-1.29
lithium(1+) ion fluoride,,[Li+].[F-],PQXKHYXIUOZZFA-UHFFFAOYSA-M,-1.290101588
isopropyl propionate,,CCC(=O)OC(C)C,IJMWOMHMDSDKGK-UHFFFAOYSA-N,-1.2906
"propanoic acid, 3-butoxy-, methyl ester",,CCCCOCCC(=O)OC,VBCSBEIIIFLVQV-UHFFFAOYSA-N,-1.2909
"1,1-dichloroethane",,CC(Cl)Cl,SCYULBFZEHDVBN-UHFFFAOYSA-N,-1.2913
sodium 6-[(E)-2-(4-aminophenyl)diazen-1-yl]-5-hydroxynaphthalene-1-sulfonate,,[Na+].Nc1ccc(N\N=C\2C=Cc3c(cccc3[S]([O-])(=O)=O)C2=O)cc1,AVULUSFAVFJIOG-UGAWPWHASA-M,-1.291560039
"2,6-dimethylphenol",,Cc1cccc(C)c1O,NXXYKOUNUYWIHA-UHFFFAOYSA-N,-1.292396158
homidium bromide [ban:inn],,[Br-].CC[n+]1c2cc(N)ccc2c3ccc(N)cc3c1c4ccccc4,ZMMJGEGLRURXTF-UHFFFAOYSA-N,-1.2948
"sodium 1-amino-4-(cyclohexylamino)-9,10-dioxo-9,10-dihydroanthracene-2-sulfonate",,[Na+].Nc1c(cc(NC2CCCCC2)c3C(=O)c4ccccc4C(=O)c13)[S]([O-])(=O)=O,DJDYMAHXZBQZKH-UHFFFAOYSA-M,-1.296365099
"urea, n-butyl-n-phenyl",,CCCCN(C(N)=O)c1ccccc1,GOGYHVOOMHFPAC-UHFFFAOYSA-N,-1.2971
n-oxidenicotinic acid,,OC(=O)C1=C[NH++]([O-])[CH-]C=C1,FJCFFCXMEXZEIM-UHFFFAOYSA-N,-1.2983
3-oxo-N-phenylbutanamide,,CC(=O)CC(=O)Nc1ccccc1,DYRDKSSFIWVSNM-UHFFFAOYSA-N,-1.299081063
pholcodine,,CN1CC[C@]23[C@H]4Oc5c(OCCN6CCOCC6)ccc(C[C@@H]1C2C=C[C@@H]4O)c35,GPFAJKDEDBRFOS-SLITUTQKSA-N,-1.2994
"disodium 5-({4-[bis(2-hydroxyethyl)amino]-6-(phenylamino)-1,3,5-triazin-2-yl}amino)-2-{2-[4-({4-[bis(2-hydroxyethyl)amino]-6-(phenylamino)-1,3,5-triazin-2-yl}amino)-2-sulfonatophenyl]ethenyl}benzene-1-sulfonate",,[Na+].[Na+].OCCN(CCO)c1nc(Nc2ccccc2)nc(Nc3ccc(\C=C\c4ccc(Nc5nc(Nc6ccccc6)nc(n5)N(CCO)CCO)cc4[S]([O-])(=O)=O)c(c3)[S]([O-])(=O)=O)n1,YJHDFAAFYNRKQE-YHPRVSEPSA-L,-1.29966008
"6-dimethylaminopurine;  n6,n6-dimethyladenine",,CN(C)C1=NC=NC2=C1N=C[NH]2,BVIAOQMSVZHOJM-UHFFFAOYSA-N,-1.3
2-sulfamoyl-6-(aminoacetamidoacetoxyethoxy)benzothiazole,,NCC(=O)NCC(=O)OCCOC1=CC2=C(C=C1)N=C(S2)[S](N)(=O)=O,WNQBATPBJYGENS-UHFFFAOYSA-N,-1.3
"1,2-dichloroethylene",,ClC=CCl,KFUSEUYYWQURPO-UHFFFAOYSA-N,-1.3
hexanal,,O=CCCCCC,JARKCYVAAOWBJS-UHFFFAOYSA-N,-1.3
4-methoxyacetanilide,,O=C(Nc(ccc(c1)OC)c1)C,XVAIDCNLVLTVFM-UHFFFAOYSA-N,-1.3
"(9-methoxy-3-methyl-2,4,4~{a},7,7~{a},13-hexahydro-1~{H}-4,12-methanobenzofuro[3,2-e]isoquinolin-7-yl) acetate",,COC1=C2OC3C(OC(C)=O)C=CC4C5CC(=C2C43CCN5C)C=C1,MFXFQKMUCYHPFQ-UHFFFAOYSA-N,-1.3
"N,N-dimethyl-2-[6-methyl-2-(4-methylphenyl)imidazo[3,2-a]pyridin-3-yl]acetamide",,CC1=CC=C(C2=C(CC(=O)N(C)C)N3C=C(C)C=CC3=N2)C=C1,ZAFYATHCZYHLPB-UHFFFAOYSA-N,-1.3
"cis 1,2-Dichloroethylene",,Cl\C=C/Cl,KFUSEUYYWQURPO-UPHRSURJSA-N,-1.3
"glycine, n-(dithiocarboxy)-, n-ester with mercap",,OC(=O)CNC(=S)SCC(O)=O,FKNJURNHJJFOFH-UHFFFAOYSA-N,-1.3011
"glutamic acid, n-(2-cyanoethyl)-",,OC(=O)CC[C@H](NCCC#N)C(O)=O,DDTCLMFTBAHLCY-LURJTMIESA-N,-1.3015
"5-methyl-octahydro-2-benzofuran-1,3-dione",,CC1CCC2C(C1)C(=O)OC2=O,FKBMTBAXDISZGN-UHFFFAOYSA-N,-1.301526049
"5,8,11,13,16,19-hexaoxatricosane",,CCCCOCCOCCOCOCCOCCOCCCC,DKWHHTWSTXZKDW-UHFFFAOYSA-N,-1.301635776
"2,4-dimethyl-3-pentanone",,CC(C)C(=O)C(C)C,HXVNBWAKAOHACI-UHFFFAOYSA-N,-1.3018
"acetic acid, oxo(phenylamino)-",,OC(=O)C(=O)Nc1ccccc1,PQJZHMCWDKOPQG-UHFFFAOYSA-N,-1.3019
Cobaltous citrate,,[Co++].[Co++].[Co++].OC(CC([O-])=O)(CC([O-])=O)C([O-])=O.OC(CC([O-])=O)(CC([O-])=O)C([O-])=O,IEXXNGVQCLMTKU-UHFFFAOYSA-H,-1.3025955
"1,2,3-benzothiadiazol-5-amine",,Nc1ccc2snnc2c1,NTOZWWRQYAJWGC-UHFFFAOYSA-N,-1.3045
3-bromo-1-nitrobenzene,,[O-][N+](=O)c1cccc(Br)c1,FWIROFMBWVMWLB-UHFFFAOYSA-N,-1.3054
"sodium 1-amino-4-bromo-9,10-dioxo-9,10-dihydroanthracene-2-sulfonate",,[Na+].Nc1c(cc(Br)c2C(=O)c3ccccc3C(=O)c12)[S]([O-])(=O)=O,TXMRAEGWZZVGIH-UHFFFAOYSA-M,-1.305537302
butyl 4-oxopentanoate,,CCCCOC(=O)CCC(C)=O,ISBWNEKJSSLXOD-UHFFFAOYSA-N,-1.306674746
chlorphenesin,,OCC(O)COc1ccc(Cl)cc1,MXOAEAUPQDYUQM-UHFFFAOYSA-N,-1.3067
"pyridine, 2,3,4,6-tetramethyl-",,Cc1cc(C)c(C)c(C)n1,QBSVEFGWBSANTE-UHFFFAOYSA-N,-1.3069
"disodium 2-amino-4,6-dinitrophenol 4-nitroaniline 8-{2-[(1E)-2-oxido-4-oxocyclohexa-2,5-dien-1-ylidene]hydrazin-1-yl}-3,6-disulfonaphthalen-1-olate iron",,[Na+].[Na+].[Fe].Nc1ccc(cc1)[N+]([O-])=O.Nc2cc(cc(c2O)[N+]([O-])=O)[N+]([O-])=O.OC/3=CC(=O)C=CC3=N/Nc4cc(cc5cc(cc(O)c45)[S]([O-])(=O)=O)[S]([O-])(=O)=O,VKGDLXPXGUTJRE-JEZQZZQZSA-L,-1.307546525
Fluoxetine,CAS54910-89-3,CNCCC(Oc1ccc(C(F)(F)F)cc1)c1ccccc1,RTHCYVBBDHJXIQ-UHFFFAOYSA-N,-1.31
2-methyl-3-hexanol,,CCCC(O)C(C)C,RGRUUTLDBCWYBL-UHFFFAOYSA-N,-1.3093
Urapidil,CAS34661-75-1,COc1ccccc1N1CCN(CCCNc2cc(=O)n(C)c(=O)n2C)CC1.Cl,KTMLZVUAXJERAT-UHFFFAOYSA-N,-1.31