Name,ID,SMILES,inchi,LogS
Budesonide,CAS51333-22-3,CCCC1O[C@@H]2C[C@H]3[C@@H]4CCC5=CC(=O)C=C[C@]5(C)[C@H]4[C@@H](O)C[C@]3(C)[C@]2(C(=O)CO)O1,VOVIALXJUBGFJZ-KWVAZRHASA-N,-4.33
"2,2,4-trimethyl-1-[(2-methylpropanoyl)oxy]pentan-3-yl 2-methylpropanoate",,CC(C)C(OC(=O)C(C)C)C(C)(C)COC(=O)C(C)C,OMVSWZDEEGIJJI-UHFFFAOYSA-N,-4.333139569
"1,1,1-TRICHLORO-2,2,2-TRIFLUOROETHANE",,FC(F)(F)C(Cl)(Cl)Cl,BOSAWIQFTJIYIS-UHFFFAOYSA-N,-4.333192393
"1,2-dimethylcyclohexane (trans)",,C[C@H]1CCCC[C@@H]1C,KVZJLSYJROEPSQ-YUMQZZPRSA-N,-4.3341
2-[(2-cyanoethyl)[4-[(6-nitrobenzothiazol-2-yl)azo]phenyl]amino]ethyl acetate,,CC(=O)OCCN(CCC#N)c1ccc(cc1)N=Nc2sc3cc(ccc3n2)[N+]([O-])=O,ZNUBBVSUTSNSIM-UHFFFAOYSA-N,-4.340908898
cyclohexylbenzene,,C1CCC(CC1)c2ccccc2,IGARGHRYKHJQSM-UHFFFAOYSA-N,-4.341502278
Nimesulide,CAS51803-78-2,CS(=O)(=O)Nc1ccc([N+](=O)[O-])cc1Oc1ccccc1,HYWYRSMBCFDLJT-UHFFFAOYSA-N,-4.34
butyl 2-({[(2-butoxy-2-oxoethyl)sulfanyl]methyl}sulfanyl)acetate,,CCCCOC(=O)CSCSCC(=O)OCCCC,QCWRDNFBMVSDEY-UHFFFAOYSA-N,-4.343077858
,CHEMBL2180020,CC(C)C1=NC(N=C1N)(c2ccccc2)c3cccc(c3)c4cncnc4,JBCUFKPVMAMCAR-UHFFFAOYSA-N,-4.346469317
hyocholic acid,,C[C@H](CCC(O)=O)[C@H]1CC[C@H]2[C@@H]3[C@H](O)[C@H](O)[C@@H]4C[C@H](O)CC[C@]4(C)[C@H]3CC[C@]12C,DKPMWHFRUGMUKF-KWXDGCAGSA-N,-4.3465
,CHEMBL2164381,FC(F)(F)Oc1ccc(CNC(=O)C2N(CCC#N)C(=O)c3ccccc23)cc1,ODMIZDMPOAVBLL-UHFFFAOYSA-N,-4.346533711
1-bromonaphthalene,,Brc1cccc2ccccc12,DLKQHBOKULLWDQ-UHFFFAOYSA-N,-4.3468
(4R)-1-methyl-4-(prop-1-en-2-yl)cyclohex-1-ene,,CC(=C)[C@@H]1CCC(=CC1)C,XMGQYMWWDOXHJM-JTQLQIEISA-N,-4.346837785
Diethylstilbestrol,,CC\C(c1ccc(O)cc1)=C(\CC)c2ccc(O)cc2,RGLYKWWBQGJZGM-ISLYRVAYSA-N,-4.3495
1-[({[(tetradecyloxy)carbonyl]peroxy}carbonyl)oxy]tetradecane,,CCCCCCCCCCCCCCOC(=O)OOC(=O)OCCCCCCCCCCCCCC,CSKKAINPUYTTRW-UHFFFAOYSA-N,-4.349900579
n1-(4-chloro-2-methylphenyl)sulfanilamide;  4-chloro-2-methylsulfabenzene,,CC1=C(N[S](=O)(=O)C2=CC=C(N)C=C2)C=CC(=C1)Cl,QVUSGTRNWLETRQ-UHFFFAOYSA-N,-4.35
hyocholic  acid,,CC(CCC(O)=O)C1CCC2C3C(O)C(O)C4CC(O)CCC4(C)C3CCC12C,DKPMWHFRUGMUKF-UHFFFAOYSA-N,-4.35
Diethylstilbestrol,,Oc(ccc(C(=C(c(ccc(O)c1)c1)CC)CC)c2)c2,RGLYKWWBQGJZGM-UHFFFAOYSA-N,-4.35
"2-(4-methylphenyl)-1,3-benzothiazole",,CC1=CC=C(C2=NC3=C(C=CC=C3)S2)C=C1,JVPGYYNQTPWXGE-UHFFFAOYSA-N,-4.35
1-(4-fluorophenyl)-4-[4-hydroxy-4-(4-methylphenyl)piperidin-1-yl]butan-1-one,,CC1=CC=C(C2(O)CCN(CCCC(=O)C3=CC=C(F)C=C3)CC2)C=C1,AGAHNABIDCTLHW-UHFFFAOYSA-N,-4.35
"4-[[4-(5-phenyl-1,3-oxazol-2-yl)phenyl]methyl]morpholine",,C1=CC=C(C2=CN=C(C3=CC=C(CN4CCOCC4)C=C3)O2)C=C1,LQUCGMWVJVCUFX-UHFFFAOYSA-N,-4.35
hexestrol,,CCC(C(CC)c1ccc(O)cc1)c2ccc(O)cc2,PBBGSZCBWVPOOL-UHFFFAOYSA-N,-4.353
"benzoic acid, anhydride",,O=C(OC(=O)c1ccccc1)c2ccccc2,CHIHQLCVLOXUJW-UHFFFAOYSA-N,-4.3546
,CHEMBL3632783,CC(C)(C)c1nc(c2ccncc2)c3c(N)c(C#N)c(N)nc3n1,UGCNRXUEBLUACM-UHFFFAOYSA-N,-4.356267835
"2,2-dimethylpentane",,CCCC(C)(C)C,CXOWYJMDMMMMJO-UHFFFAOYSA-N,-4.3575
Anidulafungin,CAS166663-25-8,CCCCCOc1ccc(-c2ccc(-c3ccc(C(=O)N[C@H]4C[C@@H](O)[C@@H](O)NC(=O)[C@@H]5[C@@H](O)[C@@H](C)CN5C(=O)[C@H]([C@@H](C)O)NC(=O)[C@H]([C@H](O)[C@@H](O)c5ccc(O)cc5)NC(=O)[C@@H]5C[C@@H](O)CN5C(=O)[C@H]([C@@H](C)O)NC4=O)cc3)cc2)cc1,JHVAMHSQVVQIOT-MFAJLEFUSA-N,-4.36
sodium 2-({2-amino-8-hydroxy-6-[(2-methylphenyl)sulfamoyl]-1-naphthyl}diazenyl)-5-[(chloroacetyl)amino]benzenesulfonate,,[Na+].CN(c1ccccc1)[S](=O)(=O)C2=CC(=O)C3=C(NNc4ccc(NC(=O)CCl)cc4[S]([O-])(=O)=O)C(=N)C=CC3=C2,NVRGYEUIJNZYKB-UHFFFAOYSA-M,-4.35885707
2-[(4-chlorophenyl)hydrazono]malononitrile,,ClC1=CC=C(NN=C(C#N)C#N)C=C1,LLQAOIITXFNWED-UHFFFAOYSA-N,-4.36
1-Methoxy-4-nitronaphthalene,,COC1=CC=C(C2=CC=CC=C21)[N+](=O)[O-],YFJKGPRYPHFGQD-UHFFFAOYSA-N,-4.36
"ethyl 2-[4-(1,3-benzothiazol-2-yl)phenyl]acetate",,CCOC(=O)CC1=CC=C(C2=NC3=C(C=CC=C3)S2)C=C1,TZVFXVJWJZMPSP-UHFFFAOYSA-N,-4.36
"2,2,3-Trimethylbutane",,CC(C)C(C)(C)C,ZISSAWUMDACLOM-UHFFFAOYSA-N,-4.36
"1,1'-sulfanediyldibenzene",,S(c1ccccc1)c2ccccc2,LTYMSROWYAPPGB-UHFFFAOYSA-N,-4.360607869
"4-picoline, 2-chloro-6-methoxy-alpha,alpha,alpha",,COc1cc(cc(Cl)n1)C(Cl)(Cl)Cl,RPCKKUFLSMORHB-UHFFFAOYSA-N,-4.3635
O-(4-bromo-2-chlorophenyl) O-ethyl S-propyl thiophosphate,,CCCS[P](=O)(OCC)Oc1ccc(Br)cc1Cl,QYMMJNLHFKGANY-UHFFFAOYSA-N,-4.365622838
"bis(2,4,4-trimethylpentyl)phosphinic acid",,CC(CC(C)(C)C)C[P](O)(=O)CC(C)CC(C)(C)C,QUXFOKCUIZCKGS-UHFFFAOYSA-N,-4.366128471
prednisolone acetate,,CC(=O)OCC(=O)[C@@]1(O)CC[C@H]2[C@@H]3CCC4=CC(=O)C=C[C@]4(C)[C@H]3[C@@H](O)C[C@]12C,LRJOMUJRLNCICJ-JZYPGELDSA-N,-4.3692
methotrimeprazine;  levomepromazine,,COC1=CC2=C(SC3=C(C=CC=C3)N2CC(C)CN(C)C)C=C1,VRQVVMDWGGWHTJ-UHFFFAOYSA-N,-4.37
"3,4,5-trichloroveratrole",,COc1cc(Cl)c(Cl)c(Cl)c1OC,VKNITLPENCJQOP-UHFFFAOYSA-N,-4.3701
"zinc bis(O,O-diisooctyl) bis(dithiophosphate)",,[Zn++].CC(C)CCCCCO[P]([S-])(=S)OCCCCCC(C)C.CC(C)CCCCCO[P]([S-])(=S)OCCCCCC(C)C,SXYOAESUCSYJNZ-UHFFFAOYSA-L,-4.370701466
,CHEMBL2347999,CN1CCC(CC1)c2nn(c3cnc4[nH]cc(C(=O)NC(C)(C)CO)c4n3)c5ccccc25,IEQUBFCUKWRWSN-UHFFFAOYSA-N,-4.371785361
fenarimol,,OC(c1ccc(Cl)cc1)(c2cncnc2)c3ccccc3Cl,NHOWDZOIZKMVAI-UHFFFAOYSA-N,-4.374
2-(chloromethyl)oxirane; 4-[2-(4-hydroxyphenyl)propan-2-yl]phenol; 2-methyloxirane,,CC1CO1.CC(C)(c2ccc(O)cc2)c3ccc(O)cc3.ClCC4CO4,ZAZDSNWVKSFFLI-UHFFFAOYSA-N,-4.374400038
rovral (iprodione),,CC(C)NC(=O)N1CC(=O)N(C1=O)c2cc(Cl)cc(Cl)c2,ONUFESLQCSAYKA-UHFFFAOYSA-N,-4.3757
,CHEMBL1682807,Cn1cnc2cc(cnc12)C#Cc3ccccc3,GOZOOQBAFUIOQS-UHFFFAOYSA-N,-4.376425332
,CHEMBL2164392,FC(F)(F)COc1ccc(CNC(=O)C2N(CCc3ccccn3)C(=O)c4ccccc24)cc1,PZIKWOQKFKXXSK-UHFFFAOYSA-N,-4.37647432
2-methylpropane,,C[C](C)C,IIVWHGMLFGNMOW-UHFFFAOYSA-N,-4.376546543
"tris(1,3-dichloropropan-2-yl) phosphate",,ClCC(CCl)O[P](=O)(OC(CCl)CCl)OC(CCl)CCl,ASLWPAWFJZFCKF-UHFFFAOYSA-N,-4.376704974
prednisolone  acetate,,CC(=O)OCC(=O)C1(O)CCC2C3CCC4=CC(=O)C=CC4(C)C3C(O)CC12C,LRJOMUJRLNCICJ-UHFFFAOYSA-N,-4.38
bromerguride,,CCN(CC)C(=O)NC1CN(C)C2CC3=C(Br)[NH]C4=C3C(=CC=C4)C2=C1,SBHNNNRQZGYOAU-UHFFFAOYSA-N,-4.38
octyl 3-chloro-4-hydroxybenzoate,,CCCCCCCCOC(=O)C1=CC(Cl)=C(O)C=C1,LSRAKNSQYCAYKS-UHFFFAOYSA-N,-4.38
"5-amino-7-(3-amino-3-methylazetidin-1-yl)-1-cyclopropyl-6,8-difluoro-4-oxoquinoline-3-carboxylic acid",,CC1(N)CN(C2=C(F)C3=C(C(=O)C(C(=O)O)=CN3C3CC3)C(N)=C2F)C1,WXMYDHQMJVPNTD-UHFFFAOYSA-N,-4.38
"5-ethyl-8-oxo-[1,3]dioxolo[4,5-g]quinoline-7-carboxylic acid",,CCN1C=C(C(=O)O)C(=O)C2=C1C=C1OCOC1=C2,KYGZCKSPAKDVKC-UHFFFAOYSA-N,-4.38
4-[(4-hydroxyphenyl)diazenyl]benzoic acid,,O=C(O)C1=CC=C(N=NC2=CC=C(O)C=C2)C=C1,HLVCZTOFOWHIJZ-UHFFFAOYSA-N,-4.38
dodecyl prop-2-enoate,,CCCCCCCCCCCCOC(=O)C=C,PBOSTUDLECTMNL-UHFFFAOYSA-N,-4.380910978
"3-[[4-[(2,6-dibromo-4-nitrophenyl)azo]phenyl]ethylamino]propiononitrile",,CCN(CCC#N)c1ccc(cc1)N=Nc2c(Br)cc(cc2Br)[N+]([O-])=O,MWMJPPMTXZJLIK-UHFFFAOYSA-N,-4.381248689
"1,5-dimethyl-1-vinylhex-4-en-1-yl propionate",,CCC(=O)OC(C)(CCC=C(C)C)C=C,WAQIIHCCEMGYKP-UHFFFAOYSA-N,-4.382357893
"1,2-bis(2-methylpropyl) benzene-1,2-dicarboxylate",,CC(C)COC(=O)c1ccccc1C(=O)OCC(C)C,MGWAVDBGNNKXQV-UHFFFAOYSA-N,-4.383890265
"3-methylene-7-methyl-1,6-octadiene  (myrcene)",,CC(C)=CCCC(=C)C=C,UAHWPYUMFXYFJY-UHFFFAOYSA-N,-4.3861
Febuxostat,CAS144060-53-7,Cc1nc(-c2ccc(OCC(C)C)c(C#N)c2)sc1C(=O)O,BQSJTQLCZDPROO-UHFFFAOYSA-N,-4.39
,CHEMBL2322772,CN(C(=O)c1cc2CCOc3cccnc3c2s1)c4ccccc4Cl,FWNWKYWPHOIMQC-UHFFFAOYSA-N,-4.386283287
,CHEMBL2322776,Clc1ccccc1c2ocnc2c3cc4CCOc5cccnc5c4s3,PIZTWUVVLIIWOV-UHFFFAOYSA-N,-4.386289923
,CHEMBL2322501,CC(=O)Nc1nc(c2cc3CCOc4cccnc4c3s2)c([nH]1)c5ccccc5Cl,RQIONNMMALFGKD-UHFFFAOYSA-N,-4.386386418
,CHEMBL2322779,NC(=O)c1cnc2c(OCCc3cc(sc23)c4n[nH]nc4c5ccc(F)cc5F)c1,DCRLRAYKNYJGRE-UHFFFAOYSA-N,-4.386874832
"4,6-dichloro-5-nitro-2-(propylsulfanyl)pyrimidine",,CCCSc1nc(Cl)c(c(Cl)n1)[N+]([O-])=O,DDEDQHVHVPJFAC-UHFFFAOYSA-N,-4.386944624
"1,2-dibutyl benzene-1,2-dicarboxylate",,CCCCOC(=O)c1ccccc1C(=O)OCCCC,DOIRQSBPFJWKBE-UHFFFAOYSA-N,-4.387683254
"methyl 2-[(4-ethoxy-6-methylamino-1,3,5-triazin-2-yl)carbamoylsulfamoyl]benzoate",,CCOc1nc(NC)nc(NC(=O)N[S](=O)(=O)c2ccccc2C(=O)OC)n1,ZINJLDJMHCUBIP-UHFFFAOYSA-N,-4.387910769
"N-{5-[bis(prop-2-en-1-yl)amino]-2-[(E)-2-(2-chloro-4,6-dinitrophenyl)diazen-1-yl]-4-methoxyphenyl}acetamide",,COc1cc(N=Nc2c(Cl)cc(cc2[N+]([O-])=O)[N+]([O-])=O)c(NC(C)=O)cc1N(CC=C)CC=C,DKEXINVRFGWAKP-UHFFFAOYSA-N,-4.388179382
Flunarizine,CAS52468-60-7,Fc1ccc(C(c2ccc(F)cc2)N2CCN(C/C=C/c3ccccc3)CC2)cc1,SMANXXCATUTDDT-QPJJXVBHSA-N,-4.39
4-chloro-5-methyl-2-nitrophenol,,Cc1cc(O)c(cc1Cl)[N+]([O-])=O,JBMGJOKJUYGIJH-UHFFFAOYSA-N,-4.3901
Indanthren Rubine rs,,CCn1nc2cc(cc3C(=O)c4ccccc4c1c23)c5cc6nn(CC)c7c8ccccc8C(=O)c(c5)c67,HMVVJYXWTGGFDR-UHFFFAOYSA-N,-4.393183723
"pentanoic acid, 4-nitrophenyl ester",,CCCCC(=O)Oc1ccc(cc1)[N+]([O-])=O,RJQXEHRFVKJLJO-UHFFFAOYSA-N,-4.3945
"butanoic acid, 3-methyl-, 4-nitrophenyl ester",,CC(C)CC(=O)Oc1ccc(cc1)[N+]([O-])=O,SZQWZNOMEWDZLR-UHFFFAOYSA-N,-4.3945
bis(4-fluorophenyl)methanone,,Fc1ccc(cc1)C(=O)c2ccc(F)cc2,LSQARZALBDFYQZ-UHFFFAOYSA-N,-4.396652185
,CHEMBL3632779,CC(C)(C)c1nc(c2ccsc2)c3c(N)c(C#N)c(N)nc3n1,UZRQFYMJYOVPSF-UHFFFAOYSA-N,-4.397559252
,CHEMBL2335885,COCCC(=O)N(C)c1ccc(Nc2ncc3cc(ccc3n2)c4ccncc4)cc1,MFQLVAIMTGXBSE-UHFFFAOYSA-N,-4.397640735
,CHEMBL1682834,CC(=O)N1CCOc2cc(COc3ccccc3)cnc12,GYGTYEDMBXHWDC-UHFFFAOYSA-N,-4.397643706
,CHEMBL2414328,COc1cncc(c1)c2cccc(c2)c3cn4ccc(OC)c(C(=O)N)c4n3,AJGOXHBGWDCFOT-UHFFFAOYSA-N,-4.397647462
,CHEMBL2414332,NC(=O)c1nccn2cc(nc12)c3cccc(c3)c4cncc(OC[C@H]5CCCO5)c4,YPTSEABOTJAQDN-GOSISDBHSA-N,-4.397651846
"thioperoxydiphosphoric acid, tetramethyl ester",,CO[P](=S)(OC)SS[P](=S)(OC)OC,HUTQNWSTEVZUML-UHFFFAOYSA-N,-4.3981
16-Nitroviolanthrone,,[O-][N+](=O)c1cc2c3ccccc3C(=O)c4ccc5c6ccc7C(=O)c8ccccc8c9ccc(c6c79)c1c5c24,LNNHYUOWYOSHPH-UHFFFAOYSA-N,-4.399238344
"n1-(2,5-dichlorophenyl)sulfanilamide",,NC1=CC=C(C=C1)[S](=O)(=O)NC2=CC(=CC=C2Cl)Cl,PQUPSQYCUSDJGL-UHFFFAOYSA-N,-4.4
dihydroequilin,,CC12CCC3C(=CCC4=C3C=CC(=C4)O)C1CCC2O,NLLMJANWPUQQTA-UHFFFAOYSA-N,-4.4
4-acetoxybiphenyl;  4-biphenylyl  acetate,,CC(=O)OC1=CC=C(C=C1)C2=CC=CC=C2,MISFQCBPASYYGV-UHFFFAOYSA-N,-4.4
Androsterone,,C1C(O)CC2CCC3C4CCC(=O)C4(C)CCC3C2(C)C1,QGXBDMJGAMFCBF-UHFFFAOYSA-N,-4.4
4-[(10-Methyl-9-anthryl)methyl]morpholine,,CC1=C2C=CC=CC2=C(CN2CCOCC2)C2=C1C=CC=C2,CSRINNLYWLVQQE-UHFFFAOYSA-N,-4.4
3-(4-heptyl-2-oxopyridin-1-yl)propanoic acid,,CCCCCCCC1=CC(=O)N(CCC(=O)O)C=C1,QZMVSLWRUVGILE-UHFFFAOYSA-N,-4.4
"7-chloro-3',4,6-trimethoxy-5'-methylspiro[1-benzofuran-2,6'-cyclohex-2-ene]-1',3-dione",,COC1=CC(=O)C2(OC3=C(C2=O)C(OC)=CC(OC)=C3Cl)C(C)C1,FFKRWPQQTGWKIH-UHFFFAOYSA-N,-4.4
o-dibutylphthalate,,CCCCC1=C(CCCC)C(C(O)=O)=C(C(O)=O)C=C1,NUONTTMMRCYJMI-UHFFFAOYSA-N,-4.4
2-bromonaphthalene,,Brc1ccc2ccccc2c1,APSMUYYLXZULMS-UHFFFAOYSA-N,-4.4001
dioxovanadium,,O=[V]=O,GRUMUEUJTSXQOI-UHFFFAOYSA-N,-4.400250091
Niclosamide,CAS50-65-7,O=C(Nc1ccc([N+](=O)[O-])cc1Cl)c1cc(Cl)ccc1O,RJMUSRYZPJIFPJ-UHFFFAOYSA-N,-4.4
androsterone,,C[C@]12CC[C@@H](O)C[C@@H]1CC[C@@H]3[C@@H]2CC[C@@]4(C)[C@H]3CCC4=O,QGXBDMJGAMFCBF-HLUDHZFRSA-N,-4.402
"bis(2,2,6,6-tetramethylpiperidin-4-yl) decanedioate",,CC1(C)CNCC(C)(C)C1OC(=O)CCCCCCCCC(=O)OC2C(C)(C)CNCC2(C)C,RWMYPXKVMUFMKS-UHFFFAOYSA-N,-4.40774699
Fosinopril,CAS98048-97-6,CCC(=O)OC(OP(=O)(CCCCc1ccccc1)CC(=O)N1C[C@H](C2CCCCC2)C[C@H]1C(=O)O)C(C)C,BIDNLKIUORFRQP-FKDWWROVSA-N,-4.41
mcpb-ethyl,,CCOC(=O)CCCOc1ccc(Cl)cc1C,XNKARWLGLZGMGX-UHFFFAOYSA-N,-4.4095
prasterone formate,,CC12CCC3C(CC=C4CC(CCC34C)OC=O)C1CCC2=O,HTTHUZJPMIHIOQ-UHFFFAOYSA-N,-4.41
acetic acid 4-(4-acetylaminobenzoylamino)phenyl ester,,CC(=O)NC1=CC=C(C=C1)C(=O)NC2=CC=C(OC(C)=O)C=C2,MGJXRNWWFDAVMQ-UHFFFAOYSA-N,-4.41
"octadec-9-enoic acid - N-(2-aminoethyl)ethane-1,2-diamine (1:1)",,CCCCCCCC\C=C/CCCCCCCC(O)=O.NCCNCCN,PYBPYUAKCDQFCS-KVVVOXFISA-N,-4.410087437
4-phenyl-2-nitrophenol,,Oc1ccc(cc1[N+]([O-])=O)c2ccccc2,JDDNJJBXFOLPKX-UHFFFAOYSA-N,-4.4101
chlorazine,,CCN(CC)c1nc(Cl)nc(n1)N(CC)CC,QHXDTLYEHWXDSO-UHFFFAOYSA-N,-4.4112
Longifolene,,CC1(C)CCCC2(C)C3CCC(C13)C2=C,PDSNLYSELAIEBU-UHFFFAOYSA-N,-4.412762427
"1,4-dichloro-2,5-dimethoxybenzene",,COc1cc(Cl)c(OC)cc1Cl,PFIADAMVCJPXSF-UHFFFAOYSA-N,-4.413
benzyl 2-hydroxybenzoate,,Oc1ccccc1C(=O)OCc2ccccc2,ZCTQGTTXIYCGGC-UHFFFAOYSA-N,-4.413922406
sulfosulfuron,,CC[S](=O)(=O)c1nc2ccccn2c1[S](=O)(=O)NC(=O)Nc3nc(OC)cc(OC)n3,RBSXHDIPCIWOMG-UHFFFAOYSA-N,-4.4191
ethinyl estradiol,,C[C@]12CC[C@H]3[C@@H](CCc4cc(O)ccc34)[C@@H]1CC[C@@]2(O)C#C,BFPYWIDHMRZLRN-SLHNCBLASA-N,-4.4192
Teniposide,CAS29767-20-2,COc1cc([C@@H]2c3cc4c(cc3[C@@H](O[C@@H]3O[C@@H]5CO[C@@H](c6cccs6)O[C@H]5[C@H](O)[C@H]3O)[C@H]3COC(=O)[C@H]23)OCO4)cc(OC)c1O,NRUKOCRGYNPUPR-QBPJDGROSA-N,-4.42
n1-(4-chlorophenyl)-2-methylsulfanilamide; 4-chloro-1-(4-amino-2-methylphenylsulfonamido)benzene,,CC1=C(C=CC(=C1)N)[S](=O)(=O)NC2=CC=C(Cl)C=C2,WKVHKLUGADLQMG-UHFFFAOYSA-N,-4.42
loxapine,,CN1CCN(CC1)C2=NC3=C(OC4=C2C=C(Cl)C=C4)C=CC=C3,XJGVXQDUIWGIRW-UHFFFAOYSA-N,-4.42
N-(4-Chlorophenyl)-n-hydroxy-4-methylbenzamide,,CC1=CC=C(C(=O)N(O)C2=CC=C(Cl)C=C2)C=C1,IBCDULLCLULASH-UHFFFAOYSA-N,-4.42
Heptyl 3-bromo-4-hydroxybenzoate,,CCCCCCCOC(=O)C1=CC(Br)=C(O)C=C1,ATNJUVPMRFIJJA-UHFFFAOYSA-N,-4.42
2-cyclohexylidene-2-phenylacetonitrile,,N#C[C](=[C]1CC[CH2]CC1)c2ccccc2,ZHOOOLQOWQVYOE-UHFFFAOYSA-N,-4.420023997
1-hydroxyanthraquinone,,Oc1cccc2C(=O)c3ccccc3C(=O)c12,BTLXPCBPYBNQNR-UHFFFAOYSA-N,-4.4213
"benzenamine, 2-iodo-5-nitro-",,Nc1cc(ccc1I)[N+]([O-])=O,VKQOHFHGWCXKOA-UHFFFAOYSA-N,-4.4216
benzoyl peroxide,,O=C(OOC(=O)c1ccccc1)c2ccccc2,OMPJBNCRMGITSC-UHFFFAOYSA-N,-4.4252
"3-[(2E)-dodec-2-en-1-yl]oxolane-2,5-dione; 3-[(2Z)-dodec-2-en-1-yl]oxolane-2,5-dione",,CCCCCCCCC\C=C\CC1CC(=O)OC1=O,UYCICMIUKYEYEU-ZHACJKMWSA-N,-4.425503245
"dihydro-3-(tetrapropenyl)furan-2,5-dione",,CC(C)CC(C)CC(C)\C=C(/C)C1CC(=O)OC1=O,WBRBLKRDTHYRRV-MDWZMJQESA-N,-4.425503245
"N,N-dimethyldodecan-1-amine",,CCCCCCCCCCCCN(C)C,YWFWDNVOPHGWMX-UHFFFAOYSA-N,-4.426122744
"2,4-d, butoxyethyl ester",,CCCCOCCOC(=O)COc1ccc(Cl)cc1Cl,ZMWGIGHRZQTQRE-UHFFFAOYSA-N,-4.4276
isomethiozin,,CSC1=NN=C(C(=O)N1\N=C\C(C)C)C(C)(C)C,MZTLOILRKLUURT-NTUHNPAUSA-N,-4.4288
tetradecyl prop-2-enoate,,CCCCCCCCCCCCCCOC(=O)C=C,XZHNPVKXBNDGJD-UHFFFAOYSA-N,-4.428848848
,CHEMBL3632769,CC(C)(C)c1ncc2c(N)c(C#N)c(N)nc2n1,LTTXQGNRHWVIPF-UHFFFAOYSA-N,-4.4291845
cloransulam,,CCOc1nc(F)cc2nc(nn12)[S](=O)(=O)Nc3c(Cl)cccc3C(=O)OC,BIKACRYIQSLICJ-UHFFFAOYSA-N,-4.4292
progesterone,,CC(=O)C1CCC2C3CCC4=CC(=O)CCC4(C)C3CCC12C,RJKFOVLPORLFTN-UHFFFAOYSA-N,-4.43
medazepam,,CN1CCN=C(C2=CC=CC=C2)C3=C1C=CC(=C3)Cl,YLCXGBZIZBEVPZ-UHFFFAOYSA-N,-4.43
"terbutylazine;  2-tert-butylamino-4-chloro-6-ethylamino-1,3,5-triazine",,CCNC1=NC(=NC(=N1)Cl)NC(C)(C)C,FZXISNSWEXTPMF-UHFFFAOYSA-N,-4.43
hexyl 4-hydroxy-3-iodobenzoate,,CCCCCCOC(=O)C1=CC(I)=C(O)C=C1,NXBCOPCQMVFRPQ-UHFFFAOYSA-N,-4.43
guanine,,[nH]1cnc2nc(N)[nH]c(=O)c12,UYTPUPDQBNUYGX-UHFFFAOYSA-N,-4.43
1-bromoheptane,,CCCCCCCBr,LSXKDWGTSHCFPP-UHFFFAOYSA-N,-4.431
,CHEMBL1208943,COc1cc(F)ccc1C(CNS(=O)(=O)c2ccc(F)c(Cl)c2)N3CCCCCC3,DUDNDSSCNSGTAA-UHFFFAOYSA-N,-4.431016181
,CHEMBL2322766,NC(=O)c1ccc2c(OCCc3cc(sc23)c4ncnn4C5CCC5)c1,UOVIUUFDXQXCAS-UHFFFAOYSA-N,-4.43141298
,CHEMBL1209512,Cc1onc(C)c1S(=O)(=O)NCC(N2CCCCCC2)c3ccccc3,NHOWYIJXIKWIQJ-UHFFFAOYSA-N,-4.431426882
DIHYDROERGOTAMINE,CHEMBL1732,CN1C[C@@H](C[C@H]2[C@H]1Cc3c[nH]c4cccc2c34)C(=O)N[C@]5(C)O[C@@]6(O)[C@@H]7CCCN7C(=O)[C@H](Cc8ccccc8)N6C5=O,LUZRJRNZXALNLM-JGRZULCMSA-N,-4.431500154
,CHEMBL3632771,Cc1nc(nc2nc(N)c(C#N)c(N)c12)C(C)(C)C,NTQQFESWRLRSNI-UHFFFAOYSA-N,-4.43151631
anilofos,,CO[P](=S)(OC)SCC(=O)N(C(C)C)c1ccc(Cl)cc1,NXQDBZGWYSEGFL-UHFFFAOYSA-N,-4.4321
dicryl,,CC(=C)C(=O)Nc1ccc(Cl)c(Cl)c1,VCBRBUKGTWLJOB-UHFFFAOYSA-N,-4.4325
"N',N''''-hexane-1,6-diylbis(1-cyanoguanidine)",,NC(NC#N)=NCCCCCCN=C(N)NC#N,YXZZOMVBHPCKMM-UHFFFAOYSA-N,-4.434690373
"1,1-diphenylethylene",,C=C(c1ccccc1)c2ccccc2,ZMYIIHDQURVDRB-UHFFFAOYSA-N,-4.4363
Acibenzolar-s-methyl,,CSC(=O)c1cccc2nnsc12,UELITFHSCLAHKR-UHFFFAOYSA-N,-4.4363
1-octene,,CCCCCCC=C,KWKAKUADMBZCLK-UHFFFAOYSA-N,-4.4373
bis-O-(benzylidene)-D-glucitol,,O[C@]12COC(O[C@@H]1[C@H]3OC(OC[C@H]3O2)c4ccccc4)c5ccccc5,DAZRYUTWPPBZOY-WUFCDUEQSA-N,-4.437962659
fluridone,,CN1C=C(c2ccccc2)C(=O)C(=C1)c3cccc(c3)C(F)(F)F,YWBVHLJPRPCRSD-UHFFFAOYSA-N,-4.4384
2-naphthyl  isothiocyanate; 2-isothiocyanatonaphthalene,,S=C=NC1=CC2=CC=CC=C2C=C1,RTMXPNYHPHIDHX-UHFFFAOYSA-N,-4.44
acetaminophen  octanoate;  4-(octanoyloxy)acetanilide,,CCCCCCCC(=O)OC1=CC=C(NC(C)=O)C=C1,FMSIHPQFJSZQTA-UHFFFAOYSA-N,-4.44
4-(3-phenylureido)phenyl  acetate;  acetic acid 4-(3-phenylureido)phenyl ester,,CC(=O)OC1=CC=C(NC(=O)NC2=CC=CC=C2)C=C1,HYDYEUKNONPEFM-UHFFFAOYSA-N,-4.44
"1,3-bis(4-ethoxyphenyl)urea",,CCOC1=CC=C(NC(=O)NC2=CC=C(OCC)C=C2)C=C1,PQWHYODXTBJHQG-UHFFFAOYSA-N,-4.44
N-[4-chloro-2-(trifluoromethyl)phenyl]-1-imidazol-1-yl-2-propoxyethanimine,,CCCOCC(=NC1=C(C(F)(F)F)C=C(Cl)C=C1)N1C=CN=C1,HSMVPDGQOIQYSR-UHFFFAOYSA-N,-4.44
"1-cyclopropyl-6,8-difluoro-7-(2-methyl-3-methylaminoazetidin-1-yl)-4-oxoquinoline-3-carboxylic acid",,CNC1CN(C2=C(F)C3=C(C=C2F)C(=O)C(C(=O)O)=CN3C2CC2)C1C,ICEUMJPAMUZPEV-UHFFFAOYSA-N,-4.44
halofenozide,,CC(C)(C)N(NC(=O)c1ccc(Cl)cc1)C(=O)c2ccccc2,CNKHSLKYRMDDNQ-UHFFFAOYSA-N,-4.4404
Clozapine,CAS5786-21-0,CN1CCN(C2=Nc3cc(Cl)ccc3Nc3ccccc32)CC1,QZUDBNBUXVUHMW-UHFFFAOYSA-N,-4.44
"phenanthrene-9,10-dione",,O=C1C(=O)c2ccccc2c3ccccc13,YYVYAPXYZVYDHN-UHFFFAOYSA-N,-4.4435
"nicotinamide, n-(6-methoxy-8-quinolyl)-",,COc1cc(NC(=O)c2cccnc2)c3ncccc3c1,ZWJRCYOUDPYYAQ-UHFFFAOYSA-N,-4.4461
2-(2-methylbutan-2-yl)cyclohexyl acetate,,CCC(C)(C)C1CCCCC1OC(C)=O,YEVACTAGDANHRH-UHFFFAOYSA-N,-4.446203904
oxozinc,,O=[Zn],XLOMVQKBTHCTTD-UHFFFAOYSA-N,-4.448167715
"2-thiophenesulfonamide, 4-(4-methylbenzoyl)-",,Cc1ccc(cc1)C(=O)c2csc(c2)[S](N)(=O)=O,GYTMHWVFKHLDEA-UHFFFAOYSA-N,-4.4492
bromadiolone,,OC(CC(C1=CC=CC=C1)C2=C(O)C3=C(OC2=O)C=CC=C3)C4=CC=C(C=C4)C5=CC=C(Br)C=C5,OWNRRUFOJXFKCU-UHFFFAOYSA-N,-4.45
8-methyl-2-morpholin-4-yl-7-(pyridin-2-ylmethoxy)chromen-4-one,,CC1=C(OCC2=CC=CC=N2)C=CC2=C1OC(N1CCOCC1)=CC2=O,SHVXZNHKNBYMCJ-UHFFFAOYSA-N,-4.45
solan,,CCCC(C)C(=O)Nc1ccc(C)c(Cl)c1,WGVWLKXZBUVUAM-UHFFFAOYSA-N,-4.4503
"dibromopyranthrene-8,16-dione",,Brc1ccc2c3cc4ccc5C(=O)c6ccccc6c7cc8ccc(C(=O)c2c1Br)c3c8c4c57,HJICBVMRKHYRDH-UHFFFAOYSA-N,-4.450427718
di-tert-butyl sec-butylidene diperoxide,,CCC(C)(OOC(C)(C)C)OOC(C)(C)C,HQOVXPHOJANJBR-UHFFFAOYSA-N,-4.45076092
"1,3-bis(prop-1-en-2-yl)benzene",,CC(=C)c1cccc(c1)C(C)=C,IBVPVTPPYGGAEL-UHFFFAOYSA-N,-4.451139225
"benzene, 1-bromo-4-iodo-",,Brc1ccc(I)cc1,UCCUXODGPMAHRL-UHFFFAOYSA-N,-4.452
2-methylheptyl 3-sulfanylpropanoate,,CC(C)CCCCCOC(=O)CCS,ZHUWXKIPGGZNJW-UHFFFAOYSA-N,-4.4543817
azobenzene,,c1ccc(cc1)N=Nc2ccccc2,DMLAVOWQYNRWNQ-UHFFFAOYSA-N,-4.4544
,CHEMBL2180024,CC1=NC(N=C1N)(c2ccc(F)cc2)c3cccc(c3)c4cccnc4,PXUUVOWXCHBBOB-UHFFFAOYSA-N,-4.455633889
pyrazosulfuron-ethyl,,CCOC(=O)c1cnn(C)c1[S](=O)(=O)NC(=O)Nc2nc(OC)cc(OC)n2,BGNQYGRXEXDAIQ-UHFFFAOYSA-N,-4.4561
hydrocortisone acetate,,CC(=O)OCC(=O)[C@@]1(O)CC[C@H]2[C@@H]3CCC4=CC(=O)CC[C@]4(C)[C@H]3[C@@H](O)C[C@]12C,ALEXXDVDDISNDU-JZYPGELDSA-N,-4.4577
"androst-5-en-17-one,3-(acetyloxy),3-beta-",,CC(=O)O[C@H]1CC[C@]2(C)[C@H]3CC[C@@]4(C)[C@@H](CCC4=O)[C@@H]3CC=C2C1,NCMZQTLCXHGLOK-ZKHIMWLXSA-N,-4.4584
6-methylhept-1-ene,,CC(C)CCCC=C,DFVOXRAAHOJJBN-UHFFFAOYSA-N,-4.458990177
5-ethyl-5-nonylbarbituric acid,,CCCCCCCCCC1(CC)C(=O)NC(=O)NC1=O,KMXPZGOJCXKDSG-UHFFFAOYSA-N,-4.46
"propazine;  2-chloro-4,6-bis(isopropylamino)-1,3,5-triazine",,CC(C)NC1=NC(=NC(=N1)Cl)NC(C)C,WJNRPILHGGKWCK-UHFFFAOYSA-N,-4.46
"naproxen (n,n-diethylcarbamoyl)methyl ester",,CCN(CC)C(=O)COC(=O)C(C)C1=CC2=CC=C(OC)C=C2C=C1,WABNCOPYWOQKLV-UHFFFAOYSA-N,-4.46
10-methylacridin-9-one,,CN1C2=C(C=CC=C2)C(=O)C2=C1C=CC=C2,XUVKSPPGPPFPQN-UHFFFAOYSA-N,-4.46
fenazaflor,,FC(F)(F)c1nc2cc(Cl)c(Cl)cc2n1C(=O)Oc3ccccc3,ISVQSVPUDBVFFU-UHFFFAOYSA-N,-4.4603
"4,6-dinitro-biphenyl-3-ol",,Oc1cc(c2ccccc2)c(cc1[N+]([O-])=O)[N+]([O-])=O,XIAPTRBHEBTAOZ-UHFFFAOYSA-N,-4.4611
"5-chloro-2-(2,4-dichlorophenoxy)phenol",,Oc1cc(Cl)ccc1Oc2ccc(Cl)cc2Cl,XEFQLINVKFYRCS-UHFFFAOYSA-N,-4.46171607
"Bis(2-hydroxyethyl) 2-[(6-oxobenzo[c][2,1]benzoxaphosphinin-6-yl)methyl]butanedioate",,OCCOC(=O)CC(C[P]1(=O)Oc2ccccc2c3ccccc13)C(=O)OCCO,MJOBQUIJUFKMPR-UHFFFAOYSA-N,-4.461779562