Name,ID,SMILES,inchi,LogS
SERTINDOLE,CHEMBL12713,Fc1ccc(cc1)n2cc(C3CCN(CCN4CCNC4=O)CC3)c5cc(Cl)ccc25,GZKLJWGUPQBVJQ-UHFFFAOYSA-N,-4.741570179
Tetra(10B)boron carbide,,B12B3B4B1C234,INAHAJYZKVIDIZ-UHFFFAOYSA-N,-4.742403021
,CHEMBL1681799,CN1CCOc2cc(COc3ccccc3)cnc12,XAGOQHLVLYAAMO-UHFFFAOYSA-N,-4.744424379
,CHEMBL2414335,COc1cncc(c1)c2cccc(c2)c3nc4c(cccn4n3)C(=O)N,XDDZOMZXXVDLJL-UHFFFAOYSA-N,-4.744441402
RTI 19,,CCN2c1ccccc1N(C)C(=O)c3ccccc23 ,IUMRYNUBZSCOQG-UHFFFAOYSA-N,-4.749
terbufos,,CCO[P](=S)(OCC)SCSC(C)(C)C,XLNZEKHULJKQBA-UHFFFAOYSA-N,-4.755
neburon,,CCCCN(C)C(=O)Nc1ccc(Cl)c(Cl)c1,CCGPUGMWYLICGL-UHFFFAOYSA-N,-4.7584
"5,6-dehydroisoandrosterone  valerate;  prasterone  valerate",,CCCCC(=O)OC1CCC2(C)C3CCC4(C)C(CCC4=O)C3CC=C2C1,XAFPTAQBZXAXLR-UHFFFAOYSA-N,-4.76
nifedipine,,COC(=O)C1=C(C)NC(=C(C1c2ccccc2N(=O)=O)C(=O)OC)C ,HYIMSNHJOBLJNT-UHFFFAOYSA-N,-4.76
"3-methoxyestra-2,5(10)-dien-17-ol",,COC1=CCC2=C(CC[C@@H]3[C@@H]2CC[C@]4(C)[C@@H](O)CC[C@@H]34)C1,XFFZLECPCHQJIR-GFEQUFNTSA-N,-4.761071931
Pimozide,CAS2062-78-4,O=c1[nH]c2ccccc2n1C1CCN(CCCC(c2ccc(F)cc2)c2ccc(F)cc2)CC1,YVUQSNJEYSNKRX-UHFFFAOYSA-N,-4.76
tebupirimfos,,CCO[P](=S)(OC(C)C)Oc1cnc(nc1)C(C)(C)C,AWYOMXWDGWUJHS-UHFFFAOYSA-N,-4.7626
isoxaflutole,,C[S](=O)(=O)c1cc(ccc1C(=O)c2cnoc2C3CC3)C(F)(F)F,OYIKARCXOQLFHF-UHFFFAOYSA-N,-4.7631
"ethyl 2,2-dimethyl-3-(2-methylprop-1-en-1-yl)cyclopropane-1-carboxylate",,CCOC(=O)C1C(C=C(C)C)C1(C)C,VIMXTGUGWLAOFZ-UHFFFAOYSA-N,-4.765268274
di-n-butyl tin diacetate,,CCCC[Sn++]CCCC.CC([O-])=O.CC([O-])=O,JJLKTTCRRLHVGL-UHFFFAOYSA-L,-4.7672
,CHEMBL1209657,Fc1ccc(cc1Cl)S(=O)(=O)NCC(N2CCCCCC2)c3ccccc3,MSTDPKUXQYECFM-UHFFFAOYSA-N,-4.768697467
,CHEMBL2164368,Fc1cccc2C(=O)N(CCc3ccccn3)C(C(=O)NCc4ccc(OC(F)(F)F)cc4)c12,GRXUKFHZQDPFAI-UHFFFAOYSA-N,-4.769290705
2-[1-(4-chlorobenzoyl)-5-methoxy-2-methylindol-3-yl]acetic acid,,COC1=CC2=C(C=C1)N(C(=O)C1=CC=C(Cl)C=C1)C(C)=C2CC(=O)O,CGIGDMFJXJATDK-UHFFFAOYSA-N,-4.77
captan,,ClC(Cl)(Cl)SN1C(=O)C2CC=CCC2C1=O,LDVVMCZRFWMZSG-UHFFFAOYSA-N,-4.7704
Aluminum;phosphenic acid,,[Al+3].O[PH]([O-])=O.O[PH]([O-])=O.O[PH]([O-])=O,PGOXTIQAMARHNF-UHFFFAOYSA-K,-4.770880972
"(1S,5S)-2,6,6-trimethylbicyclo[3.1.1]hept-2-ene",,CC1=CC[C@H]2C[C@@H]1C2(C)C,GRWFGVWFFZKLTI-IUCAKERBSA-N,-4.772570424
"13-ethyl-3-methoxy-6,7,11,12,13,14,15,16-octahydro-17H-cyclopenta[a]phenanthren-17-one (non-preferred name)",,CC[C@]12CCC3=C(CCc4cc(OC)ccc34)[C@@H]1CCC2=O,PFKPABPFEUSONI-ICSRJNTNSA-N,-4.772922847
"6-chloro-5-(2-chloroethyl)-2,3-dihydro-1H-indol-2-one",,ClCCc1cc2CC(=O)Nc2cc1Cl,ZTQQXEPZEYIVDK-UHFFFAOYSA-N,-4.77757407
phenmedipham,,COC(=O)Nc1cccc(OC(=O)Nc2cccc(C)c2)c1,IDOWTHOLJBTAFI-UHFFFAOYSA-N,-4.779
"1-(3,3-dimethylcyclohexyl)pent-4-en-1-one",,CC1(C)CCCC(C1)C(=O)CCC=C,OHYNEUHOSWPWLZ-UHFFFAOYSA-N,-4.77931051
2-chlorodiphenyl ether,,Clc1ccccc1Oc2ccccc2,IPBRZLMGGXHHMS-UHFFFAOYSA-N,-4.7796
2-bromo-4-nitro-1-sulfanilamidobenzene;  2-bromo-4-nitro-1-sulfabenzene,,NC1=CC=C(C=C1)[S](=O)(=O)NC2=CC=C(C=C2Br)[N+]([O-])=O,HMKBHDBLXCCKGW-UHFFFAOYSA-N,-4.78
methyl 2-(6-methoxynaphthalen-2-yl)propanoate,,COC(=O)C(C)C1=CC2=CC=C(OC)C=C2C=C1,ZFYFBPCRUQZGJE-UHFFFAOYSA-N,-4.78
warfarin,,CC(=O)CC(c1ccccc1)c1c(O)c2ccccc2oc1=O,PJVWKTKQMONHTI-UHFFFAOYSA-N,-4.78
2-[(2-hydroxyethyl)[(9E)-octadec-9-en-1-yl]amino]ethan-1-ol,,CCCCCCCC/C=C/CCCCCCCCN(CCO)CCO,BITAPBDLHJQAID-MDZDMXLPSA-N,-4.78011829
"O1-nonyl O2-octyl benzene-1,2-dicarboxylate",,CCCCCCCCCOC(=O)c1ccccc1C(=O)OCCCCCCCC,ZKHMKHBSASMXEZ-UHFFFAOYSA-N,-4.780941415
"propane-1,2-diyl bisoctadec-9-enoate",,CCCCCCCC\C=C/CCCCCCCC(=O)OCC(C)OC(=O)CCCCCCC\C=C/CCCCCCCC,UMHYVXGZRGOICM-AUYXYSRISA-N,-4.781756093
1-(propan-2-yl)naphthalene; 2-(propan-2-yl)naphthalene,,CC(C)c1cccc2ccccc12,PMPBFICDXLLSRM-UHFFFAOYSA-N,-4.782393555
oxocadmium,,O=[Cd],CXKCTMHTOKXKQT-UHFFFAOYSA-N,-4.786382933
diofenolan,,CC[C@H]1OC[C@@H](COc2ccc(Oc3ccccc3)cc2)O1,ZDOOQPFIGYHZFV-MSOLQXFVSA-N,-4.7874
"4-[(1-amino-4-hydroxy-9,10-dioxo-9,10-dihydroanthracen-2-yl)oxy]-N-(3-ethoxypropyl)benzene-1-sulfonamide",,CCOCCCN[S](=O)(=O)c1ccc(Oc2cc(O)c3C(=O)c4ccccc4C(=O)c3c2N)cc1,ALXCWDABTQQKAH-UHFFFAOYSA-N,-4.787470096
zinc bis(dinonylnaphthalenesulphonate),,[Zn++].CCCCCCCCCc1cc2ccccc2c(c1CCCCCCCCC)[S]([O-])(=O)=O.CCCCCCCCCc3cc4ccccc4c(c3CCCCCCCCC)[S]([O-])(=O)=O,COGHWIKGZJHSAG-UHFFFAOYSA-L,-4.788424219
imazosulfuron,,COc1cc(OC)nc(NC(=O)N[S](=O)(=O)c2n3ccccc3nc2Cl)n1,NAGRVUXEKKZNHT-UHFFFAOYSA-N,-4.7886
"N,N-dibutyloctadec-9-enamide",,CCCCCCCC\C=C/CCCCCCCC(=O)N(CCCC)CCCC,YMGHPIVBMBXPCR-NXVVXOECSA-N,-4.788985441
trimipramine,,CC(CN(C)C)CN1C2=C(CCC3=C1C=CC=C3)C=CC=C2,ZSCDBOWYZJWBIY-UHFFFAOYSA-N,-4.79
norethisterone_acetate,,CC(=O)OC3(CCC4C2CCC1=CC(=O)CCC1C2CCC34C)C#C,IMONTRJLAWHYGT-UHFFFAOYSA-N,-4.79
4-chlorophenyl phenyl ether,,Clc1ccc(Oc2ccccc2)cc1,PGPNJCAMHOJTEF-UHFFFAOYSA-N,-4.7925
2-benzyl-2-(dimethylamino)-1-[4-(morpholin-4-yl)phenyl]butan-1-one,,CCC(Cc1ccccc1)(N(C)C)C(=O)c2ccc(cc2)N3CCOCC3,UHFFVFAKEGKNAQ-UHFFFAOYSA-N,-4.793227892
dibutylstannanone,,CCCC[Sn](=O)CCCC,JGFBRKRYDCGYKD-UHFFFAOYSA-N,-4.794038183
,CHEMBL1209359,Clc1ccc(cc1)S(=O)(=O)NCC(N2CCOCC2)c3ccccc3,SUYNYRMPDZCVQW-UHFFFAOYSA-N,-4.794973907
,CHEMBL1682793,O=C1C=CN=C2C=C(C=CN12)C#Cc3ccccc3,BQUMEJOETXDKQW-UHFFFAOYSA-N,-4.795561248
IDEBENONE,CHEMBL252556,COC1=C(OC)C(=O)C(=C(C)C1=O)CCCCCCCCCCO,JGPMMRGNQUBGND-UHFFFAOYSA-N,-4.795583907
,CHEMBL3632773,CC(C)(C)c1nc(CCCCC#N)c2c(N)c(C#N)c(N)nc2n1,JQGONWGIRZJPGP-UHFFFAOYSA-N,-4.795592331
,CHEMBL2414323,NC(=O)c1cccn2cc(nc12)c3cccc(c3)c4cncc(OCCF)c4,SHUPBUNINDTYGB-UHFFFAOYSA-N,-4.795595557
4-(4-nitrophenylazo)phenol,,[O-][N+](=O)c1ccc(NN=C2C=CC(=O)C=C2)cc1,ISHCVXKNSGUMPL-UHFFFAOYSA-N,-4.796
dmpa,,CO[P](=S)(NC(C)C)Oc1ccc(Cl)cc1Cl,PJFGPJQBWSEWKX-UHFFFAOYSA-N,-4.7982
gadolinium,,[Gd],UIWYJDYFSGRHKR-UHFFFAOYSA-N,-4.798650645
2-(4-{2-[4-(oxiran-2-ylmethoxy)phenyl]propan-2-yl}phenoxymethyl)oxirane,,CC(C)(c1ccc(OCC2CO2)cc1)c3ccc(OCC4CO4)cc3,LCFVJGUPQDGYKZ-UHFFFAOYSA-N,-4.799620032
"4,4'-dichlorodiphenyl ether",,Clc1ccc(Oc2ccc(Cl)cc2)cc1,URUJZHZLCCIILC-UHFFFAOYSA-N,-4.7999
"Alcohols, C16-18 and C18-unsatd., ethoxylated",,CCOCCCCCCCCCCCCCC\C=C\CC,WBCCOWHDSAVXAO-AATRIKPKSA-N,-4.799983961
n-(3-anisyl)anthranilic  acid;   2-(3-methoxyphenylamino)benzoic acid,,COC1=CC=CC(=C1)NC2=CC=CC=C2C(O)=O,SSRGDXQQJKAWKX-UHFFFAOYSA-N,-4.8
n1-(1-benzyl-2-oxopyrimidin-4-yl)sulfanilamide;  1-benzyl-4-sulfapyrimidin-2-one,,NC1=CC=C(C=C1)[S](=O)(=O)NC2=NC(=O)N(CC3=CC=CC=C3)C=C2,HLCYDXRGEPUIOB-UHFFFAOYSA-N,-4.8
"N-hydroxy-2,2-dimethyldodecanamide",,CCCCCCCCCCC(C)(C)C(=O)NO,OLVPZKMXZBVFAM-UHFFFAOYSA-N,-4.8
Efavirenz,CAS154598-52-4,O=C1Nc2ccc(Cl)cc2[C@@](C#CC2CC2)(C(F)(F)F)O1,XPOQHMRABVBWPR-ZDUSSCGKSA-N,-4.8
procymidone,,CC12CC1(C)C(=O)N(C2=O)c3cc(Cl)cc(Cl)c3,QXJKBPAVAHBARF-UHFFFAOYSA-N,-4.8003
3-phenylpropyl benzoate,,O=C(OCCCc1ccccc1)c2ccccc2,ONPVMQLRVWKFFL-UHFFFAOYSA-N,-4.800973789
copper thiocyanate,,[Cu+].[S-]C#N,PDZKZMQQDCHTNF-UHFFFAOYSA-M,-4.80401091
norethindrone acetate,,CC(=O)O[C@]1(CC[C@H]2[C@@H]3CCC4=CC(=O)CC[C@@H]4[C@H]3CC[C@]12C)C#C,IMONTRJLAWHYGT-ZCPXKWAGSA-N,-4.8041
2-ethylhexyl 2-methylprop-2-enoate,,CCCCC(CC)COC(=O)C(C)=C,WDQMWEYDKDCEHT-UHFFFAOYSA-N,-4.805974161
"tributyl benzene-1,2,4-tricarboxylate",,CCCCOC(=O)c1ccc(C(=O)OCCCC)c(c1)C(=O)OCCCC,RJIFVNWOLLIBJV-UHFFFAOYSA-N,-4.807173711
"1,2,4-tribromobenzene",,Brc1ccc(Br)c(Br)c1,FWAJPSIPOULHHH-UHFFFAOYSA-N,-4.808
"9-Octadecenoic acid (Z)-, reaction products with 2-[(2-aminoethyl)amino]ethanol",,CCCCCCCC\C=C/CCCCCCCC(O)=O.NCCNCCO,YGJDXOJIYODGEO-KVVVOXFISA-N,-4.809134189
1-iodoheptane,,CCCCCCCI,LMHCYRULPLGEEZ-UHFFFAOYSA-N,-4.8102
"1,5-dimethyl-1-vinylhex-4-en-1-yl 2-methylpropanoate",,CC(C)C(=O)OC(C)(CCC=C(C)C)C=C,JZIARAQCPRDGAC-UHFFFAOYSA-N,-4.810584984
"4,4-dimethyloctane",,CCCCC(C)(C)CCC,ZMEDGZAGMLTROM-UHFFFAOYSA-N,-4.8108
bilirubin,,CC1=C(C=C)/C(NC1=O)=C/c2[nH]c(Cc3[nH]c(\C=C\4NC(=O)C(=C4C)C=C)c(C)c3CCC(O)=O)c(CCC(O)=O)c2C,BPYKTIZUTYGOLE-IFADSCNNSA-N,-4.8127
butamifos,,CCO[P](=S)(NC(C)CC)Oc1cc(C)ccc1[N+]([O-])=O,OEYOMNZEMCPTKN-UHFFFAOYSA-N,-4.814
"Alcohols, C12-13",,C.CCCCCCCCCCCCO,WWYHAQDAMPXWSI-UHFFFAOYSA-N,-4.81481019
allethrin,,CC(C)=CC1C(C(=O)OC2CC(=O)C(=C2C)CC=C)C1(C)C,ZCVAOQKBXKSDMS-UHFFFAOYSA-N,-4.8179
"N-cyclohexyl-3-[(4-{[3-(cyclohexylsulfamoyl)-2,4,6-trimethylphenyl]amino}-9,10-dioxo-9,10-dihydroanthracen-1-yl)amino]-2,4,6-trimethylbenzene-1-sulfonamide",,Cc1cc(C)c(c(C)c1Nc2ccc(Nc3c(C)cc(C)c(c3C)[S](=O)(=O)NC4CCCCC4)c5C(=O)c6ccccc6C(=O)c25)[S](=O)(=O)NC7CCCCC7,AYYCRXDSCYPSRP-UHFFFAOYSA-N,-4.818703465
6-chloro-2-(5-nitrofuran-2-yl)-1~{H}-benzimidazole,,C1=CC2=C(C=C1Cl)NC(=N2)C3=CC=C(O3)[N+](=O)[O-],XKTWHYDFCTZPQM-UHFFFAOYSA-N,-4.82
"4-(3,6-dihydroxy-10,13-dimethyl-2,3,4,5,6,7,8,9,11,12,14,15,16,17-tetradecahydro-1H-cyclopenta[a]phenanthren-17-yl)pentanoic acid",,CC(CCC(=O)O)C1CCC2C3CC(O)C4CC(O)CCC4(C)C3CCC12C,DGABKXLVXPYZII-UHFFFAOYSA-N,-4.82
"1,1,3,3-tetrabutylurea",,CCCCN(CCCC)C(=O)N(CCCC)CCCC,SNDGLCYYBKJSOT-UHFFFAOYSA-N,-4.820595497
benzyl (2E)-3-phenylprop-2-enoate,,O=C(OCc1ccccc1)/C=C/c2ccccc2,NGHOLYJTSCBCGC-VAWYXSNFSA-N,-4.820796026
,CHEMBL2322773,Clc1ccccc1n2cnnc2c3cc4CCOc5ccccc5c4s3,AXGHOMHLXIXSFD-UHFFFAOYSA-N,-4.822986961
,CHEMBL2322763,NC(=O)c1ccc2c(OCCc3cc(sc23)C4=NNC(=O)N4c5ccccc5Cl)c1,RZCPZQWWGJRSCI-UHFFFAOYSA-N,-4.823082033
,CHEMBL2164041,Oc1cccc2C(N(CCc3ccccn3)C(=O)c12)C(=O)NCc4ccc(OC(F)(F)F)cc4,NEGUYMSGZYTTPG-UHFFFAOYSA-N,-4.823642047
"1,3,5,7-tetranitro-1,3,5,7-tetrazocane",,[O-][N+](=O)N1CN(CN(CN(C1)[N+]([O-])=O)[N+]([O-])=O)[N+]([O-])=O,UZGLIIJVICEWHF-UHFFFAOYSA-N,-4.82511681
azoxystrobin,,CO\C=C(C(=O)OC)/c1ccccc1Oc2cc(Oc3ccccc3C#N)ncn2,WFDXOXNFNRHQEC-GHRIWEEISA-N,-4.8276
2-(4-phenylbenzoyl)benzoic acid,,OC(=O)c1ccccc1C(=O)c2ccc(cc2)c3ccccc3,NBYNVBRXIUUSIG-UHFFFAOYSA-N,-4.828233467
"1-(butan-2-yl)-4-{4-[4-(4-hydroxyphenyl)piperazin-1-yl]phenyl}-4,5-dihydro-1H-1,2,4-triazol-5-one",,CCC(C)N1N=CN(C1=O)c2ccc(cc2)N3CCN(CC3)c4ccc(O)cc4,FFAQILVGBAELHN-UHFFFAOYSA-N,-4.828521956
bitertanol,,CC(C)(C)C(O)C(Oc1ccc(cc1)c2ccccc2)n3cncn3,VGPIBGGRCVEHQZ-UHFFFAOYSA-N,-4.8292
17-beta-estradiol,,CC12CCC3C(CCC4=CC(=CC=C34)O)C1CCC2O,VOXZDWNPVJITMN-UHFFFAOYSA-N,-4.83
"n1-(2,4,5-trichlorophenyl)sulfanilamide;  1-sulfa-2,4,5-trichlorobenzene",,NC1=CC=C(C=C1)[S](=O)(=O)NC2=C(Cl)C=C(Cl)C(=C2)Cl,NAEQJWFRAJVALC-UHFFFAOYSA-N,-4.83
chlorpyrifos methyl,,CO[P](=S)(OC)Oc1nc(Cl)c(Cl)cc1Cl,HRBKVYFZANMGRE-UHFFFAOYSA-N,-4.831
Norethindrone Acetate,CAS51-98-9,C#C[C@@]1(OC(C)=O)CC[C@H]2[C@@H]3CCC4=CC(=O)CC[C@@H]4[C@H]3CC[C@@]21C,IMONTRJLAWHYGT-REGVOWLASA-N,-4.83
yttrium,,[Y],VWQVUPCCIRVNHF-UHFFFAOYSA-N,-4.834987719
docosyltrimethylazanium methyl sulfate,,CCCCCCCCCCCCCCCCCCCCCC[N+](C)(C)C.CO[S]([O-])(=O)=O,QIVLQXGSQSFTIF-UHFFFAOYSA-M,-4.835973065
Cobaltous carbonate,,[Co++].[O-]C([O-])=O,ZOTKGJBKKKVBJZ-UHFFFAOYSA-L,-4.837536592
"2-ethyl-2-[2-(6-methoxy-3,4-dihydronaphthalen-1(2H)-ylidene)ethyl]cyclopentane-1,3-dione",,CCC1(C/C=C2/CCCc3cc(OC)ccc23)C(=O)CCC1=O,OMXFYKCGCDGYNC-KAMYIIQDSA-N,-4.838817119
"Eburnamenine-14-carboxylic acid, ethyl ester, (3alpha,16alpha)-",,CCOC(=O)C1=CC2(CC)CCCN3CCC4=C(C32)N1C1=C4C=CC=C1,DDNCQMVWWZOMLN-UHFFFAOYSA-N,-4.84
borane,,[B],IOCVPZINIZVUIL-UHFFFAOYSA-N,-4.843574339
"2-[2-ethoxy-5-(4-ethylpiperazin-1-yl)sulfonylphenyl]-5-methyl-7-propyl-1H-imidazo[5,1-f][1,2,4]triazin-4-one",,CCCc1nc(C)c2n1NC(=NC2=O)c3cc(ccc3OCC)[S](=O)(=O)N4CCN(CC)CC4,SECKRCOLJRRGGV-UHFFFAOYSA-N,-4.843867866
ditolyl ether,,Cc1ccccc1Oc2ccccc2C,CYXMOAZSOPXQOD-UHFFFAOYSA-N,-4.843927714
a-estradiol,,C[C@]12CC[C@H]3[C@@H](CCc4cc(O)ccc34)[C@@H]1CC[C@H]2O,VOXZDWNPVJITMN-SFFUCWETSA-N,-4.8441
"3-[2-(hexadecyloxy)phenyl]-3-oxo-N-(4-phenyl-1,3-thiazol-2-yl)propanamide",,CCCCCCCCCCCCCCCCOc1ccccc1C(=O)CC(=O)Nc2scc(n2)c3ccccc3,SSGFKDXGKBJUNX-UHFFFAOYSA-N,-4.847279535
,CHEMBL3634881,CC(C)(C)c1ccc2c(N)c(C#N)c(N)nc2n1,XZPVVZIVQKHQJZ-UHFFFAOYSA-N,-4.847428523
fenpropimorph,,CC(CN1C[C@H](C)O[C@H](C)C1)Cc2ccc(cc2)C(C)(C)C,RYAUSSKQMZRMAI-ALOPSCKCSA-N,-4.8487
"2,4,5-t, ethyl ester",,CCOC(=O)COc1cc(Cl)c(Cl)cc1Cl,LVNNFHCEDQSWSC-UHFFFAOYSA-N,-4.8493
"4-naphthalen-2-yl-1,3-thiazol-2-amine",,Nc1scc(n1)c2ccc3ccccc3c2,GWDNDNTTXIIXRS-UHFFFAOYSA-N,-4.849542252
di(4-tolyl)  ether,,CC1=CC=C(OC2=CC=C(C)C=C2)C=C1,YWYHGNUFMPSTTR-UHFFFAOYSA-N,-4.85
4-biphenyl  isothiocyanate;  4-isothiocyanatobiphenyl,,S=C=NC1=CC=C(C=C1)C2=CC=CC=C2,WPYSJFXXQNITBC-UHFFFAOYSA-N,-4.85
3-benzoyloxyphenyl  isothiocyanate;  benzoic acid 3-isothiocyanatophenyl ester,,O=C(OC1=CC=CC(=C1)N=C=S)C2=CC=CC=C2,YPRUUTYWPBBBGA-UHFFFAOYSA-N,-4.85
ditolyl_ether,,Cc1cccc(c1)Oc2cccc(c2)C,FDLFMPKQBNPIER-UHFFFAOYSA-N,-4.85
Domperidone,CAS57808-66-9,O=c1[nH]c2ccccc2n1CCCN1CCC(n2c(=O)[nH]c3cc(Cl)ccc32)CC1,FGXWKSZFVQUSTL-UHFFFAOYSA-N,-4.85
"1,1,3-trimethylcyclohexane",,CC1CCCC(C)(C)C1,PYOLJOJPIPCRDP-UHFFFAOYSA-N,-4.8532
,CHEMBL3632770,CSc1nc(nc2nc(N)c(C#N)c(N)c12)C(C)(C)C,DHUIOBIJTXNQDQ-UHFFFAOYSA-N,-4.853488835
,CHEMBL1209658,Fc1ccc(cc1C#N)S(=O)(=O)NCC(N2CCCCCC2)c3ccccc3,WWBKHCQCWSZSGY-UHFFFAOYSA-N,-4.853501143
,CHEMBL1209821,COc1ccccc1C(CNS(=O)(=O)c2ccc(cc2)C(F)(F)F)N3CCCCCC3,LFCORQOTXGPVGG-UHFFFAOYSA-N,-4.853538351
,CHEMBL1682824,O=C1CCOc2nc(\C=C\c3ccccc3)ccc12,SCGMBYSQQNHWDV-VOTSOKGWSA-N,-4.853551463
,CHEMBL2164044,Fc1cnc(CCN2C(C(=O)NCc3ccc(F)c(c3)C(F)(F)F)c4ccccc4C2=O)nc1,MDNRLFQBJXDLAO-UHFFFAOYSA-N,-4.853623174
Dipyridamole,CAS58-32-2,OCCN(CCO)c1nc(N2CCCCC2)c2nc(N(CCO)CCO)nc(N3CCCCC3)c2n1,IZEKFCXSFNUWAM-UHFFFAOYSA-N,-4.86
tetramethrin,,CC(C)=C[C@@H]1[C@@H](C(=O)OCN2C(=O)C3=C(CCCC3)C2=O)C1(C)C,CXBMCYHAMVGWJQ-CABCVRRESA-N,-4.858
benomyl,,CCCCNC(=O)[N]1C(=NC2=C1C=CC=C2)NC(=O)OC,RIOXQFHNBCKOKP-UHFFFAOYSA-N,-4.86
fenclofenac,,OC(=O)CC1=CC=CC=C1OC2=C(Cl)C=C(Cl)C=C2,IDKAXRLETRCXKS-UHFFFAOYSA-N,-4.86
coumatetralyl,,OC1=C(C2CCCC3=CC=CC=C23)C(=O)OC4=CC=CC=C14,ULSLJYXHZDTLQK-UHFFFAOYSA-N,-4.86
2-(3-acetylphenylamino)benzoic acid,,CC(=O)C1=CC=CC(=C1)NC2=CC=CC=C2C(O)=O,URNBQFPUGNNQRC-UHFFFAOYSA-N,-4.86
prosulfalin,,CCCN(CCC)C1=C(C=C(C=C1[N+]([O-])=O)[S](=O)(=O)N=[S](C)C)[N+]([O-])=O,LKVOXDJKFRBRQV-UHFFFAOYSA-N,-4.86
"(2E,7R,11R)-3,7,11,15-tetramethylhexadec-2-en-1-ol; (2Z,7R,11R)-3,7,11,15-tetramethylhexadec-2-en-1-ol",,CC(C)CCC[C@@H](C)CCC[C@@H](C)CCC/C(C)=C/CO,BOTWFXYSPFMFNR-PYDDKJGSSA-N,-4.861741107
Phoxim,,CCOP(=S)(OCC)ON=C(C#N)c1ccccc1,ATROHALUCMTWTB-UHFFFAOYSA-N,-4.862
endrocide (endox) (coumatetralyl),,OC1=C(C2CCCc3ccccc23)C(=O)c4ccccc4O1,KIGBUEKEZHTCDR-UHFFFAOYSA-N,-4.8638
N-phenylnaphthalen-1-amine,,N(c1ccccc1)c2cccc3ccccc23,XQVWYOYUZDUNRW-UHFFFAOYSA-N,-4.863891631
"2-(4-bromo-3-hydroxyquinolin-2-yl)-2,3-dihydro-1H-indene-1,3-dione",,Oc1c(Br)c2ccccc2nc1C3C(=O)c4ccccc4C3=O,DVBLPJWQXDCAKU-UHFFFAOYSA-N,-4.867097266
,CHEMBL3632790,CC(C)(C)c1nc(c2ccn[nH]2)c3c(N)c(C#N)c(N)nc3n1,RHYZNHFOUFSRSZ-UHFFFAOYSA-N,-4.869398243
"3,5-di-tert-butyl-2-hydroxybenzoic acid hydrate zinc hydrochloride",,O.Cl.[Zn].CC(C)(C)c1cc(C(O)=O)c(O)c(c1)C(C)(C)C,DDGGEFYAEPNQFB-UHFFFAOYSA-N,-4.869471103
"hexamethylethane;  2,2,3,3-tetramethylbutane",,CC(C)(C)C(C)(C)C,OMMLUKLXGSRPHK-UHFFFAOYSA-N,-4.87
tetcyclacis,,ClC1=CC=C(C=C1)N2N=NC3C4CC(C5N=NC45)C23,DPOWHSMECVNHAT-UHFFFAOYSA-N,-4.87
"1-(6-tert-butyl-1,1-dimethyl-2,3-dihydro-1H-inden-4-yl)ethan-1-one",,CC(=O)c1cc(cc2c1CCC2(C)C)C(C)(C)C,IKTHMQYJOWTSJO-UHFFFAOYSA-N,-4.870866208
RTI 22,,CCN2c1cc(N(C)C)cc(C)c1NC(=O)c3cccnc23 ,ZLVJUFHIMOUPMS-UHFFFAOYSA-N,-4.871
mefenacet,,CN(C(=O)COc1sc2ccccc2n1)c3ccccc3,XIGAUIHYSDTJHW-UHFFFAOYSA-N,-4.8727
calcium oxozirconium,,[CaH2].O=[Zr],HBHGRMNRZXKQAU-UHFFFAOYSA-N,-4.87307926
dicaesium oxalate,,[Ce].[Ce].[O-]C(=O)C([O-])=O,VMQRILJWEHBRPV-UHFFFAOYSA-L,-4.873295836
hydrogen telluride,,[Te],PORWMNRCUJJQNO-UHFFFAOYSA-N,-4.875401753
"(8R,9S,13S,14S,17S)-13-ethyl-3-methoxy-6,7,8,9,11,12,14,15,16,17-decahydrocyclopenta[a]phenanthren-17-ol",,CC[C@]12CC[C@H]3[C@@H](CCc4cc(OC)ccc34)[C@@H]1CC[C@@H]2O,CNPGMVAEOUQDBN-SLHNCBLASA-N,-4.875700653
milbemectin a4,,CCC1O[C@]2(CCC1C)C[C@@H]3C[C@@H](C\C=C(/C)CC(C)/C=C/C=C/4CO[C@@H]5[C@H](O)C(=C[C@@H](C(=O)O3)[C@]45O)C)O2,VOZIAWLUULBIPN-DFYAAVTESA-N,-4.8772
"4-[(2,4-dichloro-5-methoxyphenyl)amino]-6-methoxy-7-[3-(4-methylpiperazin-1-yl)propoxy]quinoline-3-carbonitrile",,COc1cc(Nc2c(cnc3cc(OCCCN4CCN(C)CC4)c(OC)cc23)C#N)c(Cl)cc1Cl,UBPYILGKFZZVDX-UHFFFAOYSA-N,-4.879551326
isopropyl (1-(4-nitro)phenylsulfonyl) cyclohexan,,CC(C)OC(=O)C1(CCCCC1)[S](=O)(=O)c2ccc(cc2)[N+]([O-])=O,DUNHJGJBRJZBJD-UHFFFAOYSA-N,-4.8796
3-chlorobiphenyl,,c1ccccc1c2cc(Cl)ccc2,NMWSKOLWZZWHPL-UHFFFAOYSA-N,-4.88
triallate,,CC(C)N(C(C)C)C(=O)SCC(Cl)=C(Cl)Cl,MWBPRDONLNQCFV-UHFFFAOYSA-N,-4.8818
(4Z)-cyclopentadec-4-en-1-one,,O=C1CCCCCCCCCC\C=C/CC1,JIYIHILAGIZIMD-CLFYSBASSA-N,-4.883187113
Loratadine,CAS79794-75-5,CCOC(=O)N1CCC(=C2c3ccc(Cl)cc3CCc3cccnc32)CC1,JCCNYMKQOSZNPW-UHFFFAOYSA-N,-4.88
,CHEMBL3632768,Nc1nc2nc(Cc3ccccc3)ncc2c(N)c1C#N,MONBSZFSDXLASR-UHFFFAOYSA-N,-4.885761586
,CHEMBL2164361,CC(C)(Cc1ccccn1)N2C(C(=O)NCc3ccc(OC(F)(F)F)cc3)c4ccccc4C2=O,BDBFJHNNRYDUHR-UHFFFAOYSA-N,-4.885784366
oxydiethylene bis(chloroformate),,ClC(=O)OCCOCCOC(Cl)=O,XFSAZBKSWGOXRH-UHFFFAOYSA-N,-4.886549003
Ketoconazole,CAS65277-42-1,CC(=O)N1CCN(c2ccc(OC[C@H]3CO[C@](Cn4ccnc4)(c4ccc(Cl)cc4Cl)O3)cc2)CC1,XMAYWYJOQHXEEK-OZXSUGGESA-N,-4.89
ipatone,,CCN(CC)c1nc(NC(C)C)nc(OC)n1,STMMVKNOSKBEEI-UHFFFAOYSA-N,-4.889
5-decoxy-2-[(~{Z})-~{N}-hydroxy-~{C}-methylcarbonimidoyl]phenol,,CCCCCCCCCCOC1=CC(O)=C(C(C)=NO)C=C1,OHIORSVUWCEHNT-UHFFFAOYSA-N,-4.89
"6-amino-2-(2,4-dimethylphenyl)-1H-benzo[de]isoquinoline-1,3(2H)-dione",,Cc1ccc(N2C(=O)c3cccc4c(N)ccc(C2=O)c34)c(C)c1,FQLZTPSAVDHUKS-UHFFFAOYSA-N,-4.891655533
"2,6-dimethylnaphthalene",,Cc1ccc2cc(C)ccc2c1,YGYNBBAUIYTWBF-UHFFFAOYSA-N,-4.8927
"2,4-bis(2-methylbutan-2-yl)phenol",,CCC(C)(C)c1ccc(O)c(c1)C(C)(C)CC,WMVJWKURWRGJCI-UHFFFAOYSA-N,-4.892804854
,CHEMBL2347407,CC(C)(C)NC(=O)c1c[nH]c2ncc(nc12)c3n[nH]c4c(cccc34)C(C)(C)O,NLQOKMKYJKNJGC-UHFFFAOYSA-N,-4.894533238
manganese,,[Mn],PWHULOQIROXLJO-UHFFFAOYSA-N,-4.894774805
chloroxuron,,CN(C)C(=O)Nc1ccc(Oc2ccc(Cl)cc2)cc1,IVUXTESCPZUGJC-UHFFFAOYSA-N,-4.8953
Terfenadine,CAS50679-08-8,CC(C)(C)c1ccc(C(O)CCCN2CCC(C(O)(c3ccccc3)c3ccccc3)CC2)cc1,GUGOEEXESWIERI-UHFFFAOYSA-N,-4.9
dexamethasone acetate,,C[C@@H]1C[C@H]2[C@@H]3CCC4=CC(=O)C=C[C@]4(C)[C@@]3(F)[C@@H](O)C[C@]2(C)[C@@]1(O)C(=O)COC(C)=O,AKUJBENLRBOFTD-RPRRAYFGSA-N,-4.9
dexamethasone-21-acetate;  decadronal,,CC1CC2C3CCC4=CC(=O)C=CC4(C)C3(F)C(O)CC2(C)C1(O)C(=O)COC(C)=O,AKUJBENLRBOFTD-UHFFFAOYSA-N,-4.9
"naproxen (n,n-dimethylcarbamoyl)methyl ester",,COC1=CC=C2C=C(C=CC2=C1)C(C)C(=O)OCC(=O)N(C)C,IBUVVTIRLMVASK-UHFFFAOYSA-N,-4.9
"Methyl 3,9-dimethyl-7-oxo-7H-furo[3,2-g]chromene-6-carboxylate",,COC(=O)C1=CC2=C(OC1=O)C(C)=C1OC=C(C)C1=C2,JWWVPGRATMOIFZ-UHFFFAOYSA-N,-4.9
Bifenazate,,COc1ccc(cc1NNC(=O)OC(C)C)c2ccccc2,VHLKTXFWDRXILV-UHFFFAOYSA-N,-4.9025
acetyl tributyl citrate,,CCCCOC(=O)CC(CC(=O)OCCCC)(OC(C)=O)C(=O)OCCCC,QZCLKYGREBVARF-UHFFFAOYSA-N,-4.9058
trimethyl[(trimethylsilyl)oxy]silane,,C[Si](C)(C)O[Si](C)(C)C,UQEAIHBTYFGYIE-UHFFFAOYSA-N,-4.909505216
Prazepam,CAS2955-38-6,O=C1CN=C(c2ccccc2)c2cc(Cl)ccc2N1CC1CC1,MWQCHHACWWAQLJ-UHFFFAOYSA-N,-4.91
n1-(3-chloro-4-methylphenyl)sulfanilamide;  3-chloro-4-methylsulfabenzene,,CC1=C(Cl)C=C(N[S](=O)(=O)C2=CC=C(N)C=C2)C=C1,KSNBKURTGGLQHU-UHFFFAOYSA-N,-4.91
3-(propanoyloxymethyl)phenytoin,,CCC(=O)OCN1C(=O)NC(C1=O)(C2=CC=CC=C2)C3=CC=CC=C3,FBQTWGHLMQUOQL-UHFFFAOYSA-N,-4.91
difenoconazole,,CC1COC(C[N]2C=NC=N2)(O1)C3=C(Cl)C=C(OC4=CC=C(Cl)C=C4)C=C3,BQYJATMQXGBDHF-UHFFFAOYSA-N,-4.91
fluorene,,c(c(c(c1ccc2)c2)ccc3)(c3)C1,NIHNNTQXNPWCJQ-UHFFFAOYSA-N,-4.91
hexachlorobutadiene,,ClC(Cl)=C(Cl)C(Cl)=C(Cl)Cl,RWNKSTSCBHKHTB-UHFFFAOYSA-N,-4.9111
diniconazole,,CC(C)(C)C(O)\C(=C/c1ccc(Cl)cc1Cl)n2cncn2,FBOUIAKEJMZPQG-AWNIVKPZSA-N,-4.9115
"3,3'-dichlorobenzidine",,Nc1ccc(cc1Cl)c2ccc(N)c(Cl)c2,HUWXDEQWWKGHRV-UHFFFAOYSA-N,-4.912
4-amino-N-(4-carbamoylphenyl)benzamide,,NC(=O)c1ccc(NC(=O)c2ccc(N)cc2)cc1,FSPYMSUDIVFOHY-UHFFFAOYSA-N,-4.915649994
lutetium oxide,,[O--].[O--].[O--].[Lu+3].[Lu+3],UGBIHFMRUDAMBY-UHFFFAOYSA-N,-4.918566536
Gliclazide,CAS21187-98-4,Cc1ccc(S(=O)(=O)NC(=O)NN2CC3CCCC3C2)cc1,BOVGTQGAOIONJV-UHFFFAOYSA-N,-4.92
17-hydroxyandrostan-3-one,,C[C@]12CC[C@H]3[C@@H](CC[C@H]4CC(=O)CC[C@]34C)[C@@H]1CC[C@@H]2O,NVKAWKQGWWIWPM-ABEVXSGRSA-N,-4.918998851