Name,ID,SMILES,inchi,LogS
4-acetylbiphenyl,,CC(=O)c1ccc(cc1)c2ccccc2,QCZZSANNLWPGEA-UHFFFAOYSA-N,-3.3104
buminafos,,CCCCNC1(CCCCC1)[P](=O)(OCCCC)OCCCC,NMBXMBCZBXUXAM-UHFFFAOYSA-N,-3.3105
Pyrimethamine,CAS58-14-0,CCc1nc(N)nc(N)c1-c1ccc(Cl)cc1,WKSAUQYGYAYLPV-UHFFFAOYSA-N,-3.31
"benzoic acid, 4-hydroxy-3-iodo-, methyl ester",,COC(=O)c1ccc(O)c(I)c1,PXNOLLHARLSLHY-UHFFFAOYSA-N,-3.3138
"1,1,2,2,3,3,4,4-octafluoro-1,4-diiodobutane",,FC(F)(I)C(F)(F)C(F)(F)C(F)(F)I,JILAKKYYZPDQBE-UHFFFAOYSA-N,-3.314476262
aconitine,,CCN1C[C@]2(COC)[C@H](O)C[C@H](OC)[C@@]34[C@@H]5C[C@]6(O)[C@@H](OC)[C@H](O)[C@](OC(C)=O)([C@@H]([C@H](OC)[C@H]23)C14)[C@H]5[C@H]6OC(=O)c7ccccc7,XFSBVAOIAHNAPC-XTHSEXKGSA-N,-3.3187
cyproconazole,,CC(C1CC1)C(O)(Cn2cncn2)c3ccc(Cl)cc3,UFNOUKDBUJZYDE-UHFFFAOYSA-N,-3.3189
"phenol, 2,2'-sulfonylbis-",,Oc1ccccc1[S](=O)(=O)c2ccccc2O,QUWAJPZDCZDTJS-UHFFFAOYSA-N,-3.3192
fenethcarb,,CCC1=CC(=CC(=C1)OC(=O)NC)CC,HUNDISMVCBSIKO-UHFFFAOYSA-N,-3.32
strychnine,,O=C(N(c(c(C1(C(N(C2)CC(C3C4C5OC6)=C6)C3)C2)ccc7)c7)C14)C5,QMGVPVSNSZLJIA-UHFFFAOYSA-N,-3.32
"2,3-dimethylquinolin-8-ol",,CC1=CC2=CC=CC(O)=C2N=C1C,ZBLCWYDHYTWUSK-UHFFFAOYSA-N,-3.32
strychnine,,O=C1C[C@@H]2OCC=C3CN4CC[C@@]56[C@@H]4C[C@@H]3[C@@H]2[C@@H]5N1c7ccccc67,QMGVPVSNSZLJIA-FVWCLLPLSA-N,-3.3202
metosulam,,COc1cc(OC)n2nc(nc2n1)[S](=O)(=O)Nc3c(Cl)ccc(C)c3Cl,VGHPMIFEKOFHHQ-UHFFFAOYSA-N,-3.3204
2-butoxyethyl benzoate,,CCCCOCCOC(=O)c1ccccc1,NMBQBIACXMPEQB-UHFFFAOYSA-N,-3.322422536
chloraniformethane,,Clc1ccc(NC(NC=O)C(Cl)(Cl)Cl)cc1Cl,REEFSLKDEDEWAO-UHFFFAOYSA-N,-3.3228
chlorocopper,,[Cl-].[Cu+],OXBLHERUFWYNTN-UHFFFAOYSA-M,-3.32353295
cadmium dihydroxide,,[OH-].[OH-].[Cd++],PLLZRTNVEXYBNA-UHFFFAOYSA-L,-3.323633394
RTI 5,,CCN2c1ccccc1N(C)C(=O)c3cccnc23 ,QIBWCUCLHZVYNL-UHFFFAOYSA-N,-3.324
"Alcohols, C9-11-iso-, C10-rich",,CC(C)CCCCCCCO,PLLBRTOLHQQAQQ-UHFFFAOYSA-N,-3.324378497
"2-propenoic acid, 3-(2-ethoxyphenyl)-, (e)-",,CCOc1ccccc1\C=C\C([O-])=O,UXTDCJJEJZCEBF-BQYQJAHWSA-M,-3.3248
benzyl 4-hydroxybenzoate,,Oc1ccc(cc1)C(=O)OCc2ccccc2,MOZDKDIOPSPTBH-UHFFFAOYSA-N,-3.324981323
etridazole,,CCOc1snc(n1)C(Cl)(Cl)Cl,KQTVWCSONPJJPE-UHFFFAOYSA-N,-3.3254
ethyl 2-cyclohexylpropanoate,,CCOC(=O)C(C)C1CCCCC1,PZUDDXJZNSJESK-UHFFFAOYSA-N,-3.327456749
,CHEMBL1209427,CCS(=O)(=O)NCC(N1CCCCCC1)c2ccccc2,XJZNFCWNRLQLQL-UHFFFAOYSA-N,-3.327512367
bromoxynil,,Oc1c(Br)cc(cc1Br)C#N,UPMXNNIRAGDFEH-UHFFFAOYSA-N,-3.3284
(3-chloropropyl)triethoxysilane,,CCO[Si](CCCCl)(OCC)OCC,KSCAZPYHLGGNPZ-UHFFFAOYSA-N,-3.32858345
"1,10-bis(2-ethylhexyl) decanedioate",,CCCCC(CC)COC(=O)CCCCCCCCC(=O)OCC(CC)CCCC,VJHINFRRDQUWOJ-UHFFFAOYSA-N,-3.329074326
"3,5-dimethylbenzoyl chloride",,Cc1cc(C)cc(c1)C(Cl)=O,ZJIOBDJEKDUUCI-UHFFFAOYSA-N,-3.32928972
2-[(4-hydroxyphenyl)diazenyl]benzoic acid,,O=C(O)C1=C(N=NC2=CC=C(O)C=C2)C=CC=C1,DWQOTEPNRWVUDA-UHFFFAOYSA-N,-3.33
ethyl 2-(benzoylamino)-3-(4-hydroxyphenyl)propanoate,,CCOC(=O)C(CC1=CC=C(O)C=C1)NC(=O)C1=CC=CC=C1,SRLROPAFMUDDRC-UHFFFAOYSA-N,-3.33
2-(4-phenylphenyl)acetamide,,NC(=O)CC1=CC=C(C2=CC=CC=C2)C=C1,JJLKXBIUMBGNNY-UHFFFAOYSA-N,-3.33
2-hydroxyethyl 2-(6-methoxynaphthalen-2-yl)propanoate,,COC1=CC=C2C=C(C(C)C(=O)OCCO)C=CC2=C1,NYYKRAQUHNVACN-UHFFFAOYSA-N,-3.33
edifenphos,,CCO[P](=O)(Sc1ccccc1)Sc2ccccc2,AWZOLILCOUMRDG-UHFFFAOYSA-N,-3.3305
"6-ethoxy-2,2,4-trimethyl-1,2-dihydroquinoline",,CCOc1ccc2NC(C)(C)C=C(C)c2c1,DECIPOUIJURFOJ-UHFFFAOYSA-N,-3.332762335
methane; sulfuric acid,,C.O[S](O)(=O)=O,LRPCLTPZMUIPFK-UHFFFAOYSA-N,-3.333093505
4-ethenylcyclohex-1-ene,,C=CC1CCC=CC1,BBDKZWKEPDTENS-UHFFFAOYSA-N,-3.335193031
"2,2-dimethylpropane",,CC(C)(C)C,CRSOQBOWXPBRES-UHFFFAOYSA-N,-3.3371
Tricyclodecanyl acetate,,CC(=O)OC1CC2CC1C3CCCC23,YKFHIJHJBUDXFP-UHFFFAOYSA-N,-3.338049828
"1,6-heptadiene",,C=CCCCC=C,GEAWFZNTIFJMHR-UHFFFAOYSA-N,-3.3396
"6,6-dimethoxy-2,5,5-trimethylhex-2-ene",,COC(OC)C(C)(C)CC=C(C)C,RDHNTAXPFZIMDN-UHFFFAOYSA-N,-3.339761604
1-(4-methylphenylsulfonyl)cyclobutanecarboxylic acid isopropyl ester,,CC(C)OC(=O)C1(CCC1)[S](=O)(=O)C2=CC=C(C)C=C2,HMGCFJCNDADXNC-UHFFFAOYSA-N,-3.34
"2-benzoyloxy-n,n-diisopropylacetamide;  n,n-diisopropyl-2-benzoyloxyacetamide",,CC(C)N(C(C)C)C(=O)COC(=O)C1=CC=CC=C1,ZWUAUTPCFIIFAS-UHFFFAOYSA-N,-3.34
"2,4,7(1h,3h,8h)-pteridinetrione;  2,4,7-pteridinetrione",,O=C1NC(=O)C2=C(N1)NC(=O)C=N2,BCVUYVOMXUKYFC-UHFFFAOYSA-N,-3.34
1-acetoxymethyl-3-benzoyl-5-fluorouracil,,CC(=O)OCN1C=C(F)C(=O)N(C1=O)C(=O)C2=CC=CC=C2,PUXWCWJFSQGEGX-UHFFFAOYSA-N,-3.34
"(5~{Z})-5-[(3,4-dihydroxyphenyl)methylidene]-2-sulfanylidene-1,3-thiazolidin-4-one",,O=C1NC(=S)SC1=CC1=CC(O)=C(O)C=C1,WVCFNVNKWVWZFT-UHFFFAOYSA-N,-3.34
N-naphthalen-2-yl-2-sulfanylacetamide,,O=C(CS)NC1=CC=C2C=CC=CC2=C1,SGMHGVVTMOGJMX-UHFFFAOYSA-N,-3.34
"Alkenes, C9-11, C10-rich",,CC/C=C/CC/C=C/C=C,FDBJNQUXZRDJHC-KQQUZDAGSA-N,-3.34190657
p-phenylazophenol,,O=C1C=CC(C=C1)=NNc2ccccc2,JTSBGMZPPPULTA-UHFFFAOYSA-N,-3.3429
Ciprofloxacin,CAS85721-33-1,O=C(O)c1cn(C2CC2)c2cc(N3CCNCC3)c(F)cc2c1=O,MYSWGUAQZAJSOK-UHFFFAOYSA-N,-3.34
"4-benzoylbenzene-1,2,3-triol",,Oc1ccc(c(O)c1O)C(=O)c2ccccc2,HTQNYBBTZSBWKL-UHFFFAOYSA-N,-3.345107824
,CHEMBL2335879,CN1CCCC1CCNC(=O)c2ccc(Nc3ncc4cc(ccc4n3)c5ccncc5)cc2,LZUBRBPDQNOPAH-UHFFFAOYSA-N,-3.346482648
Metominostrobin,,CNC(=O)C(=N/OC)\c1ccccc1Oc2ccccc2,HIIRDDUVRXCDBN-SDXDJHTJSA-N,-3.3466
mexacarbate,,CNC(=O)Oc1cc(C)c(N(C)C)c(C)c1,YNEVBPNZHBAYOA-UHFFFAOYSA-N,-3.3469
ethyl 2-formamido-(phenylvinyl)acrylate,,CCOC(=O)C(NC=O)=CC=Cc1ccccc1,RZONVOYARNZXEO-UHFFFAOYSA-N,-3.3483
methyldymron,,CN(C(=O)NC(C)(C)c1ccccc1)c2ccccc2,FMINYZXVCTYSNY-UHFFFAOYSA-N,-3.3495
"benzoic acid, 4-amino-,pentyl ester",,CCCCCOC(=O)c1ccc(N)cc1,VKYWCHMXHQTCJQ-UHFFFAOYSA-N,-3.3499
"1,4-dichlorobenzene",,ClC1=CC=C(Cl)C=C1,OCJBOOLMMGQPQU-UHFFFAOYSA-N,-3.35
pravastatin,,CCC(C)C(=O)OC1CC(O)C=C2C=CC(C)C(CCC3CC(O)CC(=O)O3)C12,OQARDMYXSOFTLN-UHFFFAOYSA-N,-3.35
"2,2,4-triethyl-n-hydroxyoctanamide",,CCCCC(CC)CC(CC)(CC)C(=O)NO,OPOPTXYBSHDZOM-UHFFFAOYSA-N,-3.35
2-Ethyl-N-hydroxy-2-(4-methylbenzyl)butanamide,,CCC(CC)(CC1=CC=C(C)C=C1)C(=O)NO,HHDJWYOCRHVJHS-UHFFFAOYSA-N,-3.35
4-[4-(4-chlorophenyl)-4-hydroxypiperidin-1-yl]-1-phenylbutan-1-one,,O=C(CCCN1CCC(O)(C2=CC=C(Cl)C=C2)CC1)C1=CC=CC=C1,XMYBCDHWKUBJDW-UHFFFAOYSA-N,-3.35
"2,4-d, ethyl ester",,CCOC(=O)COc1ccc(Cl)cc1Cl,JSLBZIVMVVHMDJ-UHFFFAOYSA-N,-3.3503
"3-(4-ethylphenyl)-2,2-dimethylpropanenitrile",,CCc1ccc(CC(C)(C)C#N)cc1,NWMCCMGWYCKNJR-UHFFFAOYSA-N,-3.351339264
ditalimfos (laptran),,CCO[P](=S)(OCC)N1C(=O)c2ccccc2C1=O,MTBZIGHNGSTDJV-UHFFFAOYSA-N,-3.3522
4-chloro-1-nitro-2(trifluoromethyl)benzene,,[O-][N+](=O)c1ccc(Cl)cc1C(F)(F)F,CFPIGEXZPWTNOR-UHFFFAOYSA-N,-3.3533
"2,2,4,4,6,8,8-heptamethylnonane",,CC(CC(C)(C)C)CC(C)(C)CC(C)(C)C,VCLJODPNBNEBKW-UHFFFAOYSA-N,-3.354968489
"acetamide, 2,2-dichloro-n-phenyl-",,ClC(Cl)C(=O)Nc1ccccc1,KJSVAEGLTPBKAA-UHFFFAOYSA-N,-3.3555
n-methyl o-(3-isopropylphenyl)carbamate,,CNC(=O)Oc1cccc(c1)C(C)C,GYKXQTKSWLAUIT-UHFFFAOYSA-N,-3.3567
nifuradene,,[O-][N+](=O)c1oc(cc1)\C=N\N2CCNC2=O,VSVAVMVWTLLTCH-BJMVGYQFSA-N,-3.3572
benzo(f)quinoline,,c1ccc2c(c1)ccc3ncccc23,HCAUQPZEWLULFJ-UHFFFAOYSA-N,-3.3574
3-i-pr-5-mephenyl-n-me carbamate,,CNC(=O)Oc1cc(C)cc(c1)C(C)C,DTAPQAJKAFRNJB-UHFFFAOYSA-N,-3.3575
"disodium 7-{[4-chloro-6-(dodecylamino)-1,3,5-triazin-2-yl]amino}-4-hydroxy-3-(2-{4-[2-(4-sulfonatophenyl)diazen-1-yl]phenyl}diazen-1-yl)naphthalene-2-sulfonate",,[Na+].[Na+].CCCCCCCCCCCCNc1nc(Cl)nc(Nc2ccc3c(O)c(N=Nc4ccc(cc4)N=Nc5ccc(cc5)[S]([O-])(=O)=O)c(cc3c2)[S]([O-])(=O)=O)n1,VDKPMRJPMMEELL-UHFFFAOYSA-L,-3.358911212
2-(phenylhydrazono)malononitrile,,N#CC(=NNC1=CC=CC=C1)C#N,MENUYOGJCXAFFU-UHFFFAOYSA-N,-3.36
2-naphthoxyacetic acid,,OC(=O)COC1=CC2=C(C=CC=C2)C=C1,RZCJYMOBWVJQGV-UHFFFAOYSA-N,-3.36
5'-pivaloyl-idoxuridine; 5'-pivaloyl-5-iodo-2'-deoxyuridine; 5'-pivaloyl-idu,,CC(C)(C)C(=O)OCC1OC(CC1O)N2C=C(I)C(=O)NC2=O,LGQAEHYXRMFPHS-UHFFFAOYSA-N,-3.36
quinidine,,COC1=CC2=C(C=CN=C2C=C1)C(O)C3CN4CCC3C(C4)C=C,AQMBZJFAYLBACQ-UHFFFAOYSA-N,-3.36
4-amino-2(1h)-pteridinone;  4-amino-2-hydroxypteridine,,NC1=NC(=O)NC2=C1N=CC=N2,ZYLMCRLXTUAWGM-UHFFFAOYSA-N,-3.36
boc-phe-his-sta-leu-nhch2-4-pyridyl (analog 5),,CC(C)CC(NC(=O)C(CC1=C[NH]C=N1)NC(=O)C(CC2=CC=CC=C2)NC(=O)OC(C)(C)C)C(O)CC(=O)NC(CC(C)C)C(=O)NCC3=CC=NC=C3,ULHWJFTZJZSPCG-UHFFFAOYSA-N,-3.36
RTI 6,,CCN2c1nc(N(C)(CCO))ccc1NC(=O)c3cccnc23 ,RSPPUQXSQYBMEE-UHFFFAOYSA-N,-3.36
malathion,PubChemCID4004,CCOC(=O)CC(C(=O)OCC)SP(=S)(OC)OC,JXSJBGJIGXNWCI-UHFFFAOYSA-N,-3.36
"lactamide, n-decyl-",,CCCCCCCCCCNC(=O)C(C)O,NUXGELRNTBNWTF-UHFFFAOYSA-N,-3.3605
n-propylbenzene,,CCCc1ccccc1,ODLMAHJVESYWTB-UHFFFAOYSA-N,-3.3622
bis[(2-ethylhexyl)oxy]phosphinic acid,,CCCCC(CC)CO[P](O)(=O)OCC(CC)CCCC,SEGLCEQVOFDUPX-UHFFFAOYSA-N,-3.36230202
hexamethylmelamine,,CN(C)c1nc(nc(n1)N(C)C)N(C)C,UUVWYPNAQBNQJQ-UHFFFAOYSA-N,-3.3638
"1,4-dichloro-2-nitrobenzene",,[O-][N+](=O)c1cc(Cl)ccc1Cl,RZKKOBGFCAHLCZ-UHFFFAOYSA-N,-3.364225398
flutriafol (pp450),,OC(Cn1cncn1)(c2ccc(F)cc2)c3ccccc3F,JWUCHKBSVLQQCO-UHFFFAOYSA-N,-3.3651
,CHEMBL1631025,CC(C)Oc1ccc(cc1C(=O)N2Cc3ccc(cc3C2)C4CCOCC4)S(=O)(=O)C,SPASPLFBANPFIF-UHFFFAOYSA-N,-3.365543497
Melatonin,CAS73-31-4,COc1ccc2[nH]cc(CCNC(C)=O)c2c1,DRLFMBDRBRZALE-UHFFFAOYSA-N,-3.37
cyclohexanethiol,,SC1CCCCC1,CMKBCTPCXZNQKX-UHFFFAOYSA-N,-3.367213956
DONEPEZIL,CHEMBL502,COc1cc2CC(CC3CCN(Cc4ccccc4)CC3)C(=O)c2cc1OC,ADEBPBSSDYVVLD-UHFFFAOYSA-N,-3.367227586
"phenol, 4,4'-(3-methylbutylidene)bis-",,CC(C)CC(c1ccc(O)cc1)c2ccc(O)cc2,SRFHDEQOIMRMHH-UHFFFAOYSA-N,-3.3674
"4-Chlorophenyl-2-(1H-1,2,4-triazol-yl)cycloheptanol",,OC1(CCCCCC1n2cncn2)c3ccc(Cl)cc3,WRGKWWRFSUGDPX-UHFFFAOYSA-N,-3.3681
cholic acid,,C[C@H](CCC(O)=O)[C@H]1CC[C@H]2[C@@H]3[C@H](O)C[C@@H]4C[C@H](O)CC[C@]4(C)[C@H]3C[C@H](O)[C@]12C,BHQCQFFYRZLCQQ-OELDTZBJSA-N,-3.3682
lomustine,,ClCCN(N=O)C(=O)NC1CCCCC1,GQYIWUVLTXOXAJ-UHFFFAOYSA-N,-3.37
4-(butoxycarboxy)acetanilide,,CCCCOC(=O)OC1=CC=C(NC(C)=O)C=C1,HMDOTBHCMSTMJG-UHFFFAOYSA-N,-3.37
sparfloxacin,,CC1CN(CC(C)N1)C2=C(F)C3=C(C(=C2F)N)C(=O)C(=CN3C4CC4)C(O)=O,DZZWHBIBMUVIIW-UHFFFAOYSA-N,-3.37
2-ethoxy-N-hydroxy-N-phenylbenzamide,,CCOC1=C(C(=O)N(O)C2=CC=CC=C2)C=CC=C1,XWTBEINGILORHZ-UHFFFAOYSA-N,-3.37
4-[4-[(phenylmethylamino)methyl]benzoyl]thiophene-2-sulfonamide,,NS(=O)(=O)C1=CC(C(=O)C2=CC=C(CNCC3=CC=CC=C3)C=C2)=CS1,LQTPZSWRMCPHTA-UHFFFAOYSA-N,-3.37
"2,3,5,6-Tetrachlorophenol",,Oc1c(Cl)c(Cl)cc(Cl)c1Cl,KEWNKZNZRIAIAK-UHFFFAOYSA-N,-3.37
sparfloxacin,,C[C@H]1CN(C[C@@H](C)N1)C1=C(F)C2=C(C(=O)C(=CN2C2CC2)C(O)=O)C(N)=C1F,DZZWHBIBMUVIIW-DTORHVGOSA-N,-3.37
Flumazenil,CAS78755-81-4,CCOC(=O)c1ncn2c1CN(C)C(=O)c1cc(F)ccc1-2,OFBIFZUFASYYRE-UHFFFAOYSA-N,-3.37
"N,N-dimethyl-N-tetradecyltetradecan-1-aminium chloride",,[Cl-].CCCCCCCCCCCCCC[N+](C)(C)CCCCCCCCCCCCCC,RSHHCURRBLAGFA-UHFFFAOYSA-M,-3.37502496
n-dodecylamine,,CCCCCCCCCCCCN,JRBPAEWTRLWTQC-UHFFFAOYSA-N,-3.3759
methyl (1-(4-nitro)phenylsulfonyl) cyclopropane,,COC(=O)C1(CC1)[S](=O)(=O)c2ccc(cc2)[N+]([O-])=O,JPEDHHGXVGENMN-UHFFFAOYSA-N,-3.3797
methyl 4-nitrophenylsulfonylcyclopropylcarboxylate; 1-(4-nitrophenylsulfonyl)cyclopropane-2-carboxylic acid methyl ester,,COC(=O)C1CC1[S](=O)(=O)C2=CC=C(C=C2)[N+]([O-])=O,FELSOTPKAIENCI-UHFFFAOYSA-N,-3.38
isoguanine;  6-amino-3h-purin-2-one,,NC1=NC(=O)NC2=C1N=C[NH]2,DRAVOWXCEBXPTN-UHFFFAOYSA-N,-3.38
propyl 3-chloro-4-hydroxybenzoate,,CCCOC(=O)C1=CC(Cl)=C(O)C=C1,BSIHCYCJEOIHQZ-UHFFFAOYSA-N,-3.38
Methyl nonanoate,,CCCCCCCCC(=O)OC,IJXHLVMUNBOGRR-UHFFFAOYSA-N,-3.38
nitrofurantoin,,O=C2CN(N=Cc1ccc(o1)N(=O)=O)C(=O)N2 ,NXFQHRVNIOXGAQ-UHFFFAOYSA-N,-3.38
chlorpropham,,CC(C)OC(=O)Nc1cccc(Cl)c1,CWJSHJJYOPWUGX-UHFFFAOYSA-N,-3.3804
"2-phenyl-4,5-dichloro-3-pyridazinone",,ClC1=C(Cl)C(=O)N(N=C1)c2ccccc2,VKWCOHVAHQOJGU-UHFFFAOYSA-N,-3.3822
"3-pyridinecarboxamide, n-[(phenylamino)carbonyl]",,O=C(NC(=O)c1cccnc1)Nc2ccccc2,QSHWUEPEDUMMBW-UHFFFAOYSA-N,-3.3825
"1,3,5-trimethylbenzene",,Cc1cc(C)cc(C)c1,AUHZEENZYGFFBQ-UHFFFAOYSA-N,-3.382657059
butyl 2-aminobenzoate,,CCCCOC(=O)c1ccccc1N,HUIYGGQINIVDNW-UHFFFAOYSA-N,-3.383020526
[2-(1-propoxyethoxy)ethyl]benzene,,CCCOC(C)OCCc1ccccc1,FMYCPRQGKSONCP-UHFFFAOYSA-N,-3.384192904
METHYLPHENIDATE,CHEMBL796,COC(=O)C(C1CCCCN1)c2ccccc2,DUGOZIWVEXMGBE-UHFFFAOYSA-N,-3.385844558
propaphos,,CCCO[P](=O)(OCCC)Oc1ccc(SC)cc1,PWYIUEFFPNVCMW-UHFFFAOYSA-N,-3.3865
p-dinitrobenzene,,[O-][N+](=O)c1ccc(cc1)[N+]([O-])=O,FYFDQJRXFWGIBS-UHFFFAOYSA-N,-3.3867
,CHEMBL2335902,C[C@@H](NC(=O)[C@H]1CCCN1)c2ccc(Nc3ncc4cc(ccc4n3)c5ccncc5)cc2,VNTPCWOWTJRXIO-MZNJEOGPSA-N,-3.38691577
"3-aziridin-1-yl-2,4-dinitro-(n-cyclopropyl)benzamide",,[O-][N+](=O)C1=C(C=C(C(=O)NC2CC2)C(=C1)[N+]([O-])=O)N3CC3,JKLHHVBMBLUNBW-UHFFFAOYSA-N,-3.39
n-(4-acetamidopyridin-3-yl)-4-nitrobenzenesulfonamide; 4-acetylamino-3-(4-nitrophenylsulfonamido)pyridine,,CC(=O)NC1=C(N[S](=O)(=O)C2=CC=C(C=C2)[N+]([O-])=O)C=NC=C1,WFPVQUWLMGSJJX-UHFFFAOYSA-N,-3.39
naloxone,,OC1=C2OC3C(=O)CCC4(O)C5CC(=C2C34CCN5CC=C)C=C1,UZHSEJADLWPNLE-UHFFFAOYSA-N,-3.39
naproxen ester ve;  naproxen [n-(2-hydroxyethyl)-n-methyl-carbamoyl]methyl ester,,COC1=CC=C2C=C(C=CC2=C1)C(C)C(=O)OCC(=O)N(C)CCO,UKUHRIHGVXNNCI-UHFFFAOYSA-N,-3.39
iodipamide;  adipiodone,,OC(=O)C1=C(I)C(=C(I)C=C1I)NC(=O)CCCCC(=O)NC2=C(I)C=C(I)C(=C2I)C(O)=O,FFINMCNLQNTKLU-UHFFFAOYSA-N,-3.39
2-Chloroallyl_Diethyldithiocarbamate,,CCN(CC)C(=S)SCC(Cl)=C,XJCLWVXTCRQIDI-UHFFFAOYSA-N,-3.39
octyl 2-acetyloxypropanoate,,CCCCCCCCOC(=O)C(C)OC(C)=O,UMNCSZZKGJUPKA-UHFFFAOYSA-N,-3.39
ethyl 3-bromo-4-hydroxybenzoate,,CCOC(=O)C1=CC(Br)=C(O)C=C1,CMXRBHNFKLKRFS-UHFFFAOYSA-N,-3.39
"7-chloro-4-hydroxy-N-methyl-5-phenyl-3H-1,4-benzodiazepin-4-ium-2-amine",,CNC1=NC2=C(C=C(C=C2)Cl)C(=[N+](C1)O)C3=CC=CC=C3,BUCORZSTKDOEKQ-UHFFFAOYSA-O,-3.39
4-(heptyl-methylamino)diazenylbenzoic acid,,CCCCCCCN(C)N=NC1=CC=C(C(=O)O)C=C1,DNHSRCVYAJUUOK-UHFFFAOYSA-N,-3.39
ethyl octanoate,,CCCCCCCC(=O)OCC,YYZUSRORWSJGET-UHFFFAOYSA-N,-3.3907
triadimenol,,CC(C)(C)C(O)C(Oc1ccc(Cl)cc1)n2cncn2,BAZVSMNPJJMILC-UHFFFAOYSA-N,-3.3918
"3,7-dimethyloctan-1-ol",,CC(C)CCCC(C)CCO,PRNCMAKCNVRZFX-UHFFFAOYSA-N,-3.393259787
"benzoic acid, 2-(acetyloxy)-, (methylsulfonyl)me",,CC(=O)Oc1ccccc1C(=O)OC[S](C)(=O)=O,PTLSEGBRIAKFIJ-UHFFFAOYSA-N,-3.3936
"Phenol, styrenated",,Oc1ccc(C=C)cc1C=C,GZGSEMRMKBBQGA-UHFFFAOYSA-N,-3.394062684
"(2E)-1-(2,6,6-trimethylcyclohex-3-en-1-yl)but-2-en-1-one",,C/C=C/C(=O)C1C(C)C=CCC1(C)C,XEJGJTYRUWUFFD-FNORWQNLSA-N,-3.396366501
"2,3-dihydroxypropyl 12-hydroxyoctadecanoate",,CCCCCCC(O)CCCCCCCCCCC(=O)OCC(O)CO,RVNAQNUKCZKJCP-UHFFFAOYSA-N,-3.397432456
,CHEMBL2180017,CC(C)C1=NC(C)(N=C1N)c2cccc(c2)c3cccnc3,ZDXVBHMGBXHWOR-UHFFFAOYSA-N,-3.397626179
,CHEMBL2180014,CC#Cc1cncc(c1)c2cc(ccc2O)C3(N=C(C)C(=N3)N)C4CC4,AHRMUGFBTQOUNO-UHFFFAOYSA-N,-3.397629332
4-dimethylamino benzoic acid,,CN(C)c1ccc(cc1)C(O)=O,YDIYEOMDOWUDTJ-UHFFFAOYSA-N,-3.3979
N-benzyl-2-acetamido-3-methoxypropanamide,,COCC(NC(C)=O)C(=O)NCc1ccccc1,VPPJLAIAVCUEMN-UHFFFAOYSA-N,-3.398457379
Dactinomycin (Actinomycin D),CAS50-76-0,Cc1c2oc3c(C)ccc(C(=O)N[C@@H]4C(=O)N[C@H](C(C)C)C(=O)N5CCC[C@H]5C(=O)N(C)CC(=O)N(C)[C@@H](C(C)C)C(=O)O[C@@H]4C)c3nc-2c(C(=O)N[C@@H]2C(=O)N[C@H](C(C)C)C(=O)N3CCC[C@H]3C(=O)N(C)CC(=O)N(C)[C@@H](C(C)C)C(=O)O[C@@H]2C)c(N)c1=O,RJURFGZVJUQBHK-IIXSONLDSA-N,-3.4
5'-pentanoyl-idoxuridine; 5'-pentanoyl-5-iodo-2'-deoxyuridine; 5'-pentanoyl-idu,,CCCCC(=O)OCC1OC(CC1O)N2C=C(I)C(=O)NC2=O,IXRSCWSJPFKHLV-UHFFFAOYSA-N,-3.4
"n4-acetylsulfaethidole; 2-(n4-acetylsulfa)-5-ethyl-1,3,4-thiadiazole",,CCC1=NN=C(N[S](=O)(=O)C2=CC=C(NC(C)=O)C=C2)S1,UPRXAKRITNJEII-UHFFFAOYSA-N,-3.4
boc-phe-his-sta-leu-nh-ch2-ch(nh2)-2-pyridyl;  (analog 8),,CC(C)CC(NC(=O)C(CC1=C[NH]C=N1)NC(=O)C(CC2=CC=CC=C2)NC(=O)OC(C)(C)C)C(O)CC(=O)NC(CC(C)C)C(=O)NCC(N)C3=CC=CC=N3,FERFUBSFSRZOBT-UHFFFAOYSA-N,-3.4
doxepin,,CN(C)CCC=C2c1ccccc1COc3ccccc23,ODQWQRRAPPTVAG-UHFFFAOYSA-N,-3.4
"N-benzyl-5-oxahexacyclo[5.4.1.0^{2,6}.0^{3,10}.0^{4,8}.0^{9,12}]dodecan-4-amine",,C1=CC=C(CNC23OC4C5C6CC(C7C6C4C72)C53)C=C1,AVESFRBKERIICX-UHFFFAOYSA-N,-3.4
hydroxy-[7-[hydroxy(oxo)azaniumyl]oxyheptoxy]-oxoazanium,,C(CCCO[N+](=O)O)CCCO[N+](=O)O,SYNWQVFZXSMWCS-UHFFFAOYSA-N,-3.4
3-hydroxypropyl 2-(6-methoxynaphthalen-2-yl)propanoate,,COC1=CC2=CC=C(C(C)C(=O)OCCCO)C=C2C=C1,IKMOTDIWFIROFO-UHFFFAOYSA-N,-3.4
1-{[bis(2-chloroethoxy)phosphoryl]oxy}-2-({[bis(2-chloroethoxy)phosphoryl]oxy}methyl)-3-chloro-2-(chloromethyl)propane,,ClCCO[P](=O)(OCCCl)OCC(CCl)(CCl)CO[P](=O)(OCCCl)OCCCl,ZGHUDSLVQAGWEY-UHFFFAOYSA-N,-3.400175355
4-hydroxydiphenylmethane,,Oc1ccc(Cc2ccccc2)cc1,HJSPWKGEPDZNLK-UHFFFAOYSA-N,-3.4009
"Carbamazepine 10,11-Epoxide",CAS36507-30-9,NC(=O)N1c2ccccc2C2OC2c2ccccc21,ZRWWEEVEIOGMMT-UHFFFAOYSA-N,-3.4
CLOMIPRAMINE,CHEMBL415,CN(C)CCCN1c2ccccc2CCc3ccc(Cl)cc13,GDLIGKIOYRNHDA-UHFFFAOYSA-N,-3.40244315
"1,1,2,2,3,3,4,4,4-nonafluoro-N-(2-hydroxyethyl)-N-methylbutane-1-sulfonamide",,CN(CCO)[S](=O)(=O)C(F)(F)C(F)(F)C(F)(F)C(F)(F)F,DSRUAYIFDCHEEV-UHFFFAOYSA-N,-3.403685043
cycloate,,CCSC(=O)N(CC)C1CCCCC1,DFCAFRGABIXSDS-UHFFFAOYSA-N,-3.4037
"benzoic acid, 2-benzoyl-, ethyl ester",,CCOC(=O)c1ccccc1C(=O)c2ccccc2,CGWFVEFHQWJOKI-UHFFFAOYSA-N,-3.4053
"phosphoric acid,2-chloro-(2,4-dichlorophenyl)vin",,CO[P](=O)(OC)OC(=C\Cl)/c1ccc(Cl)cc1Cl,QSGNQELHULIMSJ-POHAHGRESA-N,-3.4066
propetamphos,,CCN[P](=S)(OC)OC(/C)=C\C(=O)OC(C)C,BZNDWPRGXNILMS-CLFYSBASSA-N,-3.4078
Propetamphos,,CCNP(=S)(OC)OC(=CC(=O)OC(C)C)C,BZNDWPRGXNILMS-UHFFFAOYSA-N,-3.408
"benzenamine, n-ethyl-2,4,6-trinitro-",,CCNc1c(cc(cc1[N+]([O-])=O)[N+]([O-])=O)[N+]([O-])=O,JRLUWLIIVKSPPT-UHFFFAOYSA-N,-3.4085
"1,3-benzenediol, 4,6-dinitro-",,Oc1cc(O)c(cc1[N+]([O-])=O)[N+]([O-])=O,MBXIRNHACKAGPA-UHFFFAOYSA-N,-3.4086
Etoricoxib; Arcoxia,DB01628,CC1=NC=C(C=C1)C1=C(C=C(Cl)C=N1)C1=CC=C(C=C1)S(C)(=O)=O,MNJVRJDLRVPLFE-UHFFFAOYSA-N,-3.41
"4,4'-methylenebis(2,6-dimethylphenol)",,Cc1cc(Cc2cc(C)c(O)c(C)c2)cc(C)c1O,AZZWZMUXHALBCQ-UHFFFAOYSA-N,-3.408824851
"2,3,4,6-tetrachlorophenoxyacetic  acid",,OC(=O)COC1=C(Cl)C(=C(Cl)C=C1Cl)Cl,FCZCIRUCCZUXMC-UHFFFAOYSA-N,-3.41
ibuprofen ester iic; n-methyl-n-[2-(2'-(4''-isobutylphenyl)propanoyloxy)acetyl]glycineamide,,CC(C)CC1=CC=C(C=C1)C(C)C(=O)OCC(=O)N(C)CC(N)=O,KHKOSGDSOXGMOO-UHFFFAOYSA-N,-3.41
chlorzoxazone-n-methyl hemisuccinate,,OC(=O)CCC(=O)OCN1C(=O)OC2=CC=C(Cl)C=C12,IRAKAHJFDQRYNL-UHFFFAOYSA-N,-3.41
"2,2'-(1,2-Ethanediyldisulfanediyl)bis(phenylacetic acid)",,O=C(O)C(SCCSC(C(=O)O)C1=CC=CC=C1)C1=CC=CC=C1,UAFWZTUMPCUHHG-UHFFFAOYSA-N,-3.41
"3,4,5-Trichloro-2,6-dimethoxyphenol",,COC1=C(O)C(OC)=C(Cl)C(Cl)=C1Cl,ZZCSBXFJFLSDRR-UHFFFAOYSA-N,-3.41
N-Hydroxy-n-(3-methylphenyl)-3-phenylpropanamide,,CC1=CC=CC(N(O)C(=O)CCC2=CC=CC=C2)=C1,VEEUCOPFLDEGNM-UHFFFAOYSA-N,-3.41
Pebulate,,CCCCN(CC)C(=O)SCCC,SGEJQUSYQTVSIU-UHFFFAOYSA-N,-3.41
"ethane, chloropentafluoro-",,FC(F)(F)C(F)(F)Cl,RFCAUADVODFSLZ-UHFFFAOYSA-N,-3.411
1-chloro-3-(trifluoromethyl)benzene,,FC(F)(F)c1cccc(Cl)c1,YTCGOUNVIAWCMG-UHFFFAOYSA-N,-3.411513885
"ethyl 2,6,6-trimethylcyclohexa-1,3-diene-1-carboxylate",,CCOC(=O)C1=C(C)C=CCC1(C)C,KYEZYLFPHRVFBF-UHFFFAOYSA-N,-3.411619706
fuberidazole,,[nH]1c2ccccc2nc1c3occc3,UYJUZNLFJAWNEZ-UHFFFAOYSA-N,-3.414
"benzenesulfonamide, 4-amino-n-[5-(1-methylethyl)",,CC(C)c1sc(N[S](=O)(=O)c2ccc(N)cc2)nn1,OPIGMRDAPFQALU-UHFFFAOYSA-N,-3.4141
N-(1-benzylpiperidin-4-yl)-N-phenylpropanamide,,CCC(=O)N(C1CCN(CC1)Cc2ccccc2)c3ccccc3,POQDXIFVWVZVML-UHFFFAOYSA-N,-3.41504339
,CHEMBL2180019,CC1=NC(C)(N=C1N)c2cccc(c2)c3cccnc3,GGFQOAKBKNUHNP-UHFFFAOYSA-N,-3.416484827
3-hydroxynaphthalene-2-carboxylic acid,,OC(=O)c1cc2ccccc2cc1O,ALKYHXVLJMQRLQ-UHFFFAOYSA-N,-3.417245584
anthracene-9-carboxylic acid,,OC(=O)c1c2ccccc2cc3ccccc13,XGWFJBFNAQHLEF-UHFFFAOYSA-N,-3.4174
Dicoumarol,CAS66-76-2,O=c1oc2ccccc2c(O)c1Cc1c(O)c2ccccc2oc1=O,DOBMPNYZJYQDGZ-UHFFFAOYSA-N,-3.42
ethofumesate,,CCOC1OC2=CC=C(O[S](C)(=O)=O)C=C2C1(C)C,IRCMYGHHKLLGHV-UHFFFAOYSA-N,-3.42
boc-phe-his-sta-leu-nh2-2-pyridyl (analog 4),,CC(C)CC(NC(=O)C(CC1=C[NH]C=N1)NC(=O)C(CC2=CC=CC=C2)NC(=O)OC(C)(C)C)C(O)CC(=O)NC(CC(C)C)C(=O)NCC3=CC=CC=N3,WFOVKVGGLBZBPE-UHFFFAOYSA-N,-3.42
Butyl 4-acetamidobenzoate,,CCN(CC)C(C)C(C)OC(=O)C1=CC=C(N)C=C1,TWIQYLUQWRZKNE-UHFFFAOYSA-N,-3.42
methane dimolybdenum,,C.[Mo].[Mo],JAGQSESDQXCFCH-UHFFFAOYSA-N,-3.420275441
ethyl 2-ethylhexanoate,,CCCCC(CC)C(=O)OCC,YXAGIRHBJJLWHW-UHFFFAOYSA-N,-3.423291255
diquat,,C1C[n+]2ccccc2c3cccc[n+]13,SYJFEGQWDCRVNX-UHFFFAOYSA-N,-3.425