Name,ID,SMILES,inchi,LogS
3-pentyloxan-4-yl acetate,,CCCCCC1COCCC1OC(C)=O,VSRVCSJJKWDZSH-UHFFFAOYSA-N,-2.998795888
me (1-(4-chloro)phenylsulfonyl) cyclobutane carb,,COC(=O)C1(CCC1)[S](=O)(=O)c2ccc(Cl)cc2,GWBJAJHNRFKJON-UHFFFAOYSA-N,-2.9996
heptabarbital;  5-(1-cyclohepten-1-yl)-5-ethylbarbituric acid,,CCC1(C(=O)NC(=O)NC1=O)C2=CCCCCC2,PAZQYDJGLKSCSI-UHFFFAOYSA-N,-3
"ethyl  2-cyclohexen-1-yl-2,6-dimethylmalonurate",,CCOC(=O)C(C)(C(=O)NC(=O)NC)C1=CCCCC1,MJFORILECQXJAU-UHFFFAOYSA-N,-3
"1-(1-aziridinyl)-2,4-dinitrobenzene",,[O-][N+](=O)C1=CC=C(N2CC2)C(=C1)[N+]([O-])=O,TVSWGBWBKSQDMI-UHFFFAOYSA-N,-3
"2,3,5-trichlorophenoxyacetic  acid",,OC(=O)COC1=C(Cl)C(=CC(=C1)Cl)Cl,GFMRARCDRIKDAV-UHFFFAOYSA-N,-3
7-(hexyloxycarbonyl)theophylline,,CCCCCCOC(=O)[N]1C=NC2=C1C(=O)N(C)C(=O)N2C,UORJFFDRYWJWQH-UHFFFAOYSA-N,-3
"2-sulfamoyl-5-(2,4,6-trimethylbenzenesulfonylimido)-4-methyl-1,3,4-thiadiazoline",,CN1N=C(SC1=N[S](=O)(=O)C2=C(C)C=C(C)C=C2C)[S](N)(=O)=O,QSVMFFQOVYIPQM-UHFFFAOYSA-N,-3
ethyl_cinnamate,,O=C(OCC)C=Cc(cccc1)c1,KBEBGUQPQBELIU-UHFFFAOYSA-N,-3
"3-(2,3-dimethoxyphenoxy)propane-1,2-diol",,COC1=CC=CC(OCC(O)CO)=C1OC,OLYIDXAKNMPQMJ-UHFFFAOYSA-N,-3
2-Chloro-6-[(E)-(4-hydroxyphenyl)diazenyl]benzoic acid,,O=C(O)C1=C(N=NC2=CC=C(O)C=C2)C=CC=C1Cl,LHLCXSQOCYXPTJ-UHFFFAOYSA-N,-3
2-Amino-6-(9H-fluoren-9-ylmethoxycarbonylamino)hexanoic acid,,NC(CCCCNC(=O)OCC1C2=C(C=CC=C2)C2=C1C=CC=C2)C(=O)O,RAQBUPMYCNRBCQ-UHFFFAOYSA-N,-3
1-(3-methoxyphenyl)-~{N}-[1-(2-methoxyphenyl)propan-2-yl]propan-2-amine,,COC1=CC=CC(CC(C)NC(C)CC2=C(OC)C=CC=C2)=C1,HSNNLWPVPBKGQW-UHFFFAOYSA-N,-3
"1,3-dino2 2-methyl benzene",,Cc1c(cccc1[N+]([O-])=O)[N+]([O-])=O,XTRDKALNCIHHNI-UHFFFAOYSA-N,-3.0003
"4,6-dinitro-o-cresol",,Cc1cc(cc(c1O)[N+]([O-])=O)[N+]([O-])=O,ZXVONLUNISGICL-UHFFFAOYSA-N,-3.0003
methyl (1-phenylsulfonyl) cyclobutane carboxylat,,COC(=O)C1(CCC1)[S](=O)(=O)c2ccccc2,ACFDLHBDXXPXBY-UHFFFAOYSA-N,-3.0005
isopropyl phenyl carbamate,,CC(C)OC(=O)Nc1ccccc1,VXPLXMJHHKHSOA-UHFFFAOYSA-N,-3.0005
"butanedioic acid, dibutyl ester",,CCCCOC(=O)CCC(=O)OCCCC,YUXIBTJKHLUKBD-UHFFFAOYSA-N,-3.0006
2-benzyl-2-methylbut-3-enenitrile,,CC(Cc1ccccc1)(C=C)C#N,UKLOORXNVRHFRM-UHFFFAOYSA-N,-3.000616717
tris(2-methylpropyl) phosphate,,CC(C)CO[P](=O)(OCC(C)C)OCC(C)C,HRKAMJBPFPHCSD-UHFFFAOYSA-N,-3.002154647
azaconazol,,Clc1ccc(c(Cl)c1)C2(Cn3cncn3)OCCO2,AKNQMEBLVAMSNZ-UHFFFAOYSA-N,-3.0031
"1,2-dimethyl-3-nitrobenzene",,Cc1cccc(c1C)[N+]([O-])=O,FVHAWXWFPBPFOS-UHFFFAOYSA-N,-3.003359989
"6-[(3-{[(6-carboxycyclohex-3-en-1-yl)carbonyl]oxy}-2,2-dimethylpropoxy)carbonyl]cyclohex-3-ene-1-carboxylate",,CC1(C)COC(=O)C2CC=CCC2C(=O)OC1,ZNLDISJPOBTICN-UHFFFAOYSA-N,-3.004181056
Methotrexate,CAS59-05-2,CN(Cc1cnc2nc(N)nc(N)c2n1)c1ccc(C(=O)N[C@@H](CCC(=O)O)C(=O)O)cc1,FBOZXECLQNJBKD-ZDUSSCGKSA-N,-3
potassium hydroxysilanoylolate,,[K+].O[Si]([O-])=O,WMWBFVSTSRDWRL-UHFFFAOYSA-N,-3.004467174
"(2E)-1-(2,6,6-trimethylcyclohexa-1,3-dien-1-yl)but-2-en-1-one",,C/C=C/C(=O)C1=C(C)C=CCC1(C)C,POIARNZEYGURDG-FNORWQNLSA-N,-3.005248988
"4-chloro-2,5-dimethoxyaniline",,COc1cc(Cl)c(OC)cc1N,YGUFQYGSBVXPMC-UHFFFAOYSA-N,-3.006121292
Telithromycin,CAS191114-48-4,CC[C@H]1OC(=O)[C@H](C)C(=O)[C@H](C)[C@@H](OC2O[C@H](C)C[C@H](N(C)C)[C@H]2O)[C@@](C)(OC)C[C@@H](C)C(=O)[C@@H](C)[C@H]2N(CCCCn3cnc(-c4cccnc4)c3)C(=O)O[C@]12C,LJVAJPDWBABPEJ-CNYQIRROSA-N,-3.01
"Hydrocarbons, C5-rich",,CCCCC,OFBQJSOFQDEBGM-UHFFFAOYSA-N,-3.006984006
"benzoic acid, 2-(4-bromobenzoyl)-",,OC(=O)c1ccccc1C(=O)c2ccc(Br)cc2,NONNFIAFWRSPPY-UHFFFAOYSA-N,-3.0074
epinephrine,,CNC[C@H](O)c1ccc(O)c(O)c1,UCTWMZQNUQWSLP-VIFPVBQESA-N,-3.0077
prop-1-en-2-ylbenzene,,CC(=C)c1ccccc1,XYLMUPLGERFSHI-UHFFFAOYSA-N,-3.008082322
"3-pyridinecarboxamide, n-octyl-",,CCCCCCCCNC(=O)c1cccnc1,JSIDBRSPTZXMGO-UHFFFAOYSA-N,-3.0081
methyl oct-2-ynoate,,CCCCCC#CC(=O)OC,FRLZQXRXIKQFNS-UHFFFAOYSA-N,-3.009132774
"2,4-dichloro-1-nitrobenzene",,[O-][N+](=O)c1ccc(Cl)cc1Cl,QUIMTLZDMCNYGY-UHFFFAOYSA-N,-3.009145641
"4,7-Methano-1H-indenol, 3a,4,5,6,7,7a-hexahydro-, acetate",,CC(=O)OC1=CCC2C3CCC(C3)C12,KARQHHMQOVRDNL-UHFFFAOYSA-N,-3.009726571
1-heptyne,,CCCCCC#C,YVXHZKKCZYLQOP-UHFFFAOYSA-N,-3.0099
2-(trimethylacetoxy)benzoic  acid,,CC(C)(C)C(=O)OC1=C(C=CC=C1)C(O)=O,OPARZKXAKOJBQN-UHFFFAOYSA-N,-3.01
isonoruron,,O=C(NC1C2C3CCCC3C(C1)C2)N(C)C,YGLMVCVJLXREAK-UHFFFAOYSA-N,-3.01
Iodobenzene,,Ic1ccccc1,SNHMUERNLJLMHN-UHFFFAOYSA-N,-3.01
tetracaine,,C(c1ccc(cc1)NCCCC)(=O)OCCN(C)C,GKCBAIGFKIBETG-UHFFFAOYSA-N,-3.01
ethyl (1-(4-methyl)phenylsulfonyl) cyclopropane,,CCOC(=O)C1(CC1)[S](=O)(=O)c2ccc(C)cc2,WPUICWRULLWSQY-UHFFFAOYSA-N,-3.0104
,CHEMBL1631018,C[C@H](Oc1ccc(cc1C(=O)N2Cc3cnc(cc3C2)C(F)(F)F)S(=O)(=O)C)C(F)(F)F,CNUSCWXBRLDDER-JTQLQIEISA-N,-3.011015398
nonan-1-ol,,CCCCCCCCCO,ZWRUINPWMLAQRD-UHFFFAOYSA-N,-3.013011871
ethyl 3-phenylacrylate,,CCOC(=O)\C=C\c1ccccc1,KBEBGUQPQBELIU-CMDGGOBGSA-N,-3.013046764
benzo(b)thiophene,,s1ccc2ccccc12,FCEHBMOGCRZNNI-UHFFFAOYSA-N,-3.0138
octylphosphonic acid,,CCCCCCCC[P](O)(O)=O,NJGCRMAPOWGWMW-UHFFFAOYSA-N,-3.014809552
cevadine,,C/C=C(/C)C(=O)O[C@H]1CC[C@@]2(C)[C@@H]3CC[C@H]4[C@]5(O)C[C@H](O)[C@@]6(O)[C@@H](CN7C[C@@H](C)CC[C@H]7[C@@]6(C)O)[C@]5(O)C[C@]24O[C@]13O,DBUCFOVFALNEOO-HWBIYQLFSA-N,-3.0163
triethoxy(2-methylpropyl)silane,,CCO[Si](CC(C)C)(OCC)OCC,ALVYUZIFSCKIFP-UHFFFAOYSA-N,-3.016846171
"1,4-dimethoxy-2-nitrobenzene",,COc1ccc(OC)c(c1)[N+]([O-])=O,UPTOWXNJLZJTGD-UHFFFAOYSA-N,-3.01732508
,CHEMBL1631013,C[C@H](Oc1ccc(cc1C(=O)N2Cc3ccc(cc3C2)N4CCN(C)CC4)S(=O)(=O)C)C(F)(F)F,PGCHCAHHIBWCPB-INIZCTEOSA-N,-3.018373748
chromium tris((2-ethylhexanoate),,[Cr+3].CCCCC(CC)C([O-])=O.CCCCC(CC)C([O-])=O.CCCCC(CC)C([O-])=O,WBKDDMYJLXVBNI-UHFFFAOYSA-K,-3.019941271
"5,6-dihydro-2-sulfamoylthieno[2,3-b]thiopyran-7,7-dioxide-4-one",,N[S](=O)(=O)C1=CC2=C(S1)[S](=O)(=O)CCC2=O,BGNCCUHEGHNNAP-UHFFFAOYSA-N,-3.02
isobutanoyloxymethyl nalidixate;  nalidixic acid isobutanoyloxymethyl ester,,CCN1C=C(C(=O)OCOC(=O)C(C)C)C(=O)C2=C1N=C(C)C=C2,UHAXPDKVSONCGG-UHFFFAOYSA-N,-3.02
nandrolone,,CC12CCC3C(CCC4=CC(=O)CCC34)C1CCC2O,NPAGDVCDWIYMMC-UHFFFAOYSA-N,-3.02
ethyrimol,,CCCCC1=C(C)NC(=NC1=O)NCC,BBXXLROWFHWFQY-UHFFFAOYSA-N,-3.02
4-(4-methoxyphenyl)sulfonylfuran-2-sulfonamide,,COC1=CC=C(S(=O)(=O)C2=COC(S(N)(=O)=O)=C2)C=C1,VXLVYFXPZGPXCT-UHFFFAOYSA-N,-3.02
(2-nitrooxycycloheptyl) nitrate,,C1CCC(C(CC1)O[N+](=O)[O-])O[N+](=O)[O-],LPSROTXXMWXWOK-UHFFFAOYSA-N,-3.02
"1-(3-chloropropyl)-2,3-dihydro-1H-1,3-benzodiazol-2-one",,ClCCCN1C(=O)Nc2ccccc12,GUMPYDGUYXOYML-UHFFFAOYSA-N,-3.020394269
Khellin,,COc2c1occc1c(OC)c3c(=O)cc(C)oc23 ,HSMPDPBYAYSOBC-UHFFFAOYSA-N,-3.021
"1,3,3-trimethyl-2-oxabicyclo[2.2.2]octane 2-(4-methylcyclohex-3-en-1-yl)propan-2-yl acetate",,CC(=O)OC(C)(C)C1CCC(=CC1)C.CC23CCC(CC2)C(C)(C)O3,GBIJCMYLVWYAKU-UHFFFAOYSA-N,-3.021359064
nickel(2+) ion sulfanediide,,S.[Ni],ZOPQVUGKTLTCMT-UHFFFAOYSA-N,-3.022952972
Varenicline Tartrate,CAS375815-87-5,O=C(O)C(O)C(O)C(=O)O.c1cnc2cc3c(cc2n1)C1CNCC3C1,TWYFGYXQSYOKLK-UHFFFAOYSA-N,-3.02
Pramipexole,CAS191217-81-9,CCCN[C@H]1CCc2nc(N)sc2C1.Cl.Cl.O,APVQOOKHDZVJEX-QTPLPEIMSA-N,-3.02
ethychlozate,,CCOC(=O)Cc1[nH]nc2ccc(Cl)cc12,GLPZEHFBLBYFHN-UHFFFAOYSA-N,-3.0256
2-phenoxyethyl 2-methylpropanoate,,CC(C)C(=O)OCCOc1ccccc1,MJTPMXWJHPOWGH-UHFFFAOYSA-N,-3.026343537
bis(2-chloroethyl)ethylamine,,CCN(CCCl)CCCl,UQZPGHOJMQTOHB-UHFFFAOYSA-N,-3.0265
"3-pyridinecarboxamide, n-undecyl-",,CCCCCCCCCCCNC(=O)c1cccnc1,OEDGRBFONRSXRX-UHFFFAOYSA-N,-3.0266
"benzenemethanol, 4-amino-.alpha.,.alpha.-bis(4-a",,Cc1cc(ccc1N)C(O)(c2ccc(N)cc2)c3ccc(N)cc3,OYHZNLZYIRSDHN-UHFFFAOYSA-N,-3.0272
"n,n-diethylaniline",,CCN(CC)c1ccccc1,GGSUCNLOZRCGPQ-UHFFFAOYSA-N,-3.0278
Toremifene,CAS89778-26-7,CN(C)CCOc1ccc(/C(=C(/CCCl)c2ccccc2)c2ccccc2)cc1,XFCLJVABOIYOMF-QPLCGJKRSA-N,-3.03
"2,4-dihydroxyazobenzene",,OC/1=CC(=O)C=CC1=N/Nc2ccccc2,PULNESMFDLBKAZ-SDNWHVSQSA-N,-3.0299
4-(4-hydroxyphenyl)sulfonylthiophene-2-sulfonamide,,NS(=O)(=O)C1=CC(S(=O)(=O)C2=CC=C(O)C=C2)=CS1,IGEMDIAQXSOCKX-UHFFFAOYSA-N,-3.03
"[2-(dimethylamino)-2-oxoethyl] 5-benzoyl-2,3-dihydro-1~{H}-pyrrolizine-1-carboxylate",,CN(C)C(=O)COC(=O)C1CCN2C(C(=O)C3=CC=CC=C3)=CC=C12,VTGBQYDBTJIHFI-UHFFFAOYSA-N,-3.03
"2-methyl-1,4-naphthoquinone",,CC1=CC(=O)c2ccccc2C1=O,MJVAVZPDRWSRRC-UHFFFAOYSA-N,-3.0319
2-methyl-1-pentene,,CCCC(C)=C,WWUVJRULCWHUSA-UHFFFAOYSA-N,-3.033
4-[(2-chloroethyl)(ethyl)amino]benzaldehyde,,CCN(CCCl)c1ccc(C=O)cc1,MFUFJCIFNHFEDW-UHFFFAOYSA-N,-3.033448375
indane,,C1Cc2ccccc2C1,PQNFLJBBNBOBRQ-UHFFFAOYSA-N,-3.0351
2-methyl-4-nitroaniline,,Cc1cc(ccc1N)[N+]([O-])=O,XTTIQGSLJBWVIV-UHFFFAOYSA-N,-3.036152484
Propofol,CAS2078-54-8,CC(C)c1cccc(C(C)C)c1O,OLBCVFGFOZPWHH-UHFFFAOYSA-N,-3.04
cumic acid,,CC(C)c1ccc(cc1)C(O)=O,CKMXAIVXVKGGFM-UHFFFAOYSA-N,-3.0364
cadusafos,,CCO[P](=O)(SC(C)CC)SC(C)CC,KXRPCFINVWWFHQ-UHFFFAOYSA-N,-3.0376
[2-({4-[(E)-2-(2-chloro-4-nitrophenyl)diazen-1-yl]phenyl}(ethyl)amino)ethyl]trimethylazanium chloride,,[Cl-].CCN(CC[N+](C)(C)C)c1ccc(cc1)N=Nc2ccc(cc2Cl)[N+]([O-])=O,ZFRUNHQZTYGGDY-UHFFFAOYSA-M,-3.038699623
"2-amino-6,7-diethylpteridine",,CCC1=NC2=C(N=C(N)N=C2)N=C1CC,BTBIATCZGBXLGC-UHFFFAOYSA-N,-3.04
Methyl 4-nitrobenzoate,,COC(=O)C1=CC=C(C=C1)[N+](=O)[O-],YOJAHJGBFDPSDI-UHFFFAOYSA-N,-3.04
"1,1,2-Trichlorofluoroethane  ",,FC(Cl)(Cl)CCl,ZKVMMSGRDBQIOQ-UHFFFAOYSA-N,-3.04
"1-methyl-2,4-dinitrobenzene; 2-methyl-1,3-dinitrobenzene",,Cc1ccc(cc1[N+]([O-])=O)[N+]([O-])=O,RMBFBMJGBANMMK-UHFFFAOYSA-N,-3.040285322
disodium decanedioate,,[Na+].[Na+].[O-]C(=O)CCCCCCCCC([O-])=O,NCXUIEDQTCQZRK-UHFFFAOYSA-L,-3.041064725
"2,3-quinoxalinedione, 1,4-dihydro-6-methyl-",,Cc1ccc2NC(=O)C(=O)Nc2c1,HOHZZPCLZWZMOM-UHFFFAOYSA-N,-3.0418
"1,1,2-trichlorotrifluoroethane",,FC(F)(Cl)C(F)(Cl)Cl,AJDIZQLSFPQPEY-UHFFFAOYSA-N,-3.0423
RTI 3,,O2c1cc(C)ccc1N(C)C(=O)c3cc(N)cnc23 ,MUKSMBAVCDPKRC-UHFFFAOYSA-N,-3.043
ibuproxam,,CC(C)Cc1ccc(cc1)C(C)C(=O)NO,BYPIURIATSUHDW-UHFFFAOYSA-N,-3.044
7-amino-3-methyl-8-oxo-5-thia-1-azabicyclo[4.2.0]oct-2-ene-2-carboxylic acid,,CC1=C(N2C(SC1)C(N)C2=O)C(O)=O,NVIAYEIXYQCDAN-UHFFFAOYSA-N,-3.045355413
Biotin,CAS22879-79-4,O=C(O)CCCC[C@@H]1SCC2NC(=O)NC21,YBJHBAHKTGYVGT-CRMOQAEOSA-N,-3.05
ethyl 2-methyl-2-phenylpropanoate,,CCOC(=O)C(C)(C)c1ccccc1,OFYSAFPKXXTYLU-UHFFFAOYSA-N,-3.045838317
biotin,,OC(=O)CCCCC1SCC2NC(=O)NC12,YBJHBAHKTGYVGT-UHFFFAOYSA-N,-3.046
(2E)-2-(phenylmethylidene)heptanal,,CCCCC/C(C=O)=C/c1ccccc1,HMKKIXGYKWDQSV-KAMYIIQDSA-N,-3.046658418
"phthalic acid, 3-nitro-, 2-isobutyl ester",,CC(C)(C)OC(=O)c1cccc(c1C([O-])=O)[N+]([O-])=O,ITMRQGQCULJEJR-UHFFFAOYSA-M,-3.0467
Dronedarone,CAS141626-36-0,CCCCc1oc2ccc(NS(C)(=O)=O)cc2c1C(=O)c1ccc(OCCCN(CCCC)CCCC)cc1,ZQTNQVWKHCQYLQ-UHFFFAOYSA-N,-3.05
"N-ethyl-N'-isopropyl-6-(methylsulfanyl)-1,3,5-triazine-2,4-diamine",,CCNc1nc(NC(C)C)nc(SC)n1,RQVYBGPQFYCBGX-UHFFFAOYSA-N,-3.047039957
Verapamil Hydrochloride,CAS23313-68-0,COc1ccc(CCN(C)CCCC(C#N)(c2ccc(OC)c(OC)c2)C(C)C)cc1OC.Cl,DOQPXTMNIUCOSY-UHFFFAOYSA-N,-3.05
plumbane,,[Pb],WABPQHHGFIMREM-UHFFFAOYSA-N,-3.049218023
Tolazamide,CAS1156-19-0,Cc1ccc(S(=O)(=O)NC(=O)NN2CCCCCC2)cc1,OUDSBRTVNLOZBN-UHFFFAOYSA-N,-3.05
"3-[2,2-dimethyl-3-(3-prop-2-enoyloxypropoxy)propoxy]propyl prop-2-enoate",,CC(C)(COCCCOC(=O)C=C)COCCCOC(=O)C=C,NQGDHQASSFDDLD-UHFFFAOYSA-N,-3.04954214
hexethal;  5-ethyl-5-hexylbarbituric acid,,CCCCCCC1(CC)C(=O)NC(=O)NC1=O,PSTVHRSUNBSVIJ-UHFFFAOYSA-N,-3.05
4-hydroxy-3-methoxycinnamic.acid;  ferulic.acid,,COC1=C(O)C=CC(=C1)\C=C\C(O)=O,KSEBMYQBYZTDHS-HWKANZROSA-N,-3.05
2-amino-7-naphthalenesulfonic  acid,,NC1=CC2=C(C=C1)C=CC(=C2)[S](O)(=O)=O,OKAUOXITMZTUOJ-UHFFFAOYSA-N,-3.05
Phenbutamide,,c1ccccc1S(=O)(=O)NC(=O)NCCCC,AFOGBLYPWJJVAL-UHFFFAOYSA-N,-3.05
"4-Bromo-5-(4-bromophenyl)dihydro-2,3-furandione",,O=C1OC(C2=CC=C(Br)C=C2)C(Br)C1=O,FNUXIDAXTMVGMS-UHFFFAOYSA-N,-3.05
Methyl 4-dimethylaminobenzoate,,COC(=O)C1=CC=C(N(C)C)C=C1,DBQGARDMYOMOOS-UHFFFAOYSA-N,-3.05
4-methoxysulfonylbenzoic acid,,COS(=O)(=O)C1=CC=C(C(=O)O)C=C1,IOOIOUOLXVONAC-UHFFFAOYSA-N,-3.05
"7-chloro-3,4-dihydro-1H-1,4-benzodiazepine-2,5-dione",,O=C1CNC(=O)C2=C(C=CC(Cl)=C2)N1,DUAONSMGNHXBMX-UHFFFAOYSA-N,-3.05
2-hydroxy-5-phenyldiazenylbenzoic acid,,O=C(O)C1=C(O)C=CC(N=NC2=CC=CC=C2)=C1,JHDYSXXPQIFFJZ-UHFFFAOYSA-N,-3.05
,CHEMBL1631019,C[C@H](Oc1ccc(cc1C(=O)N2Cc3ccc(nc3C2)C(F)(F)F)S(=O)(=O)C)C(F)(F)F,AKNCSOCWJLAUDN-JTQLQIEISA-N,-3.050655964
hydroquinine,,CCC1CN2CCC1CC2C(O)c3ccnc4ccc(OC)cc34,LJOQGZACKSYWCH-UHFFFAOYSA-N,-3.0514
"1(3h)-isobenzofuranone, 3,3-dimethyl-6-nitro-",,CC1(C)OC(=O)c2cc(ccc12)[N+]([O-])=O,FENLPGARWVQRJL-UHFFFAOYSA-N,-3.0516
"(2R)-6-fluoro-2-[(2R)-oxiran-2-yl]-3,4-dihydro-2H-1-benzopyran; (2R)-6-fluoro-2-[(2S)-oxiran-2-yl]-3,4-dihydro-2H-1-benzopyran; (2S)-6-fluoro-2-[(2R)-oxiran-2-yl]-3,4-dihydro-2H-1-benzopyran; (2S)-6-fluoro-2-[(2S)-oxiran-2-yl]-3,4-dihydro-2H-1-benzopyran",,Fc1ccc2O[C@@H](CCc2c1)[C@@H]3CO3.Fc4ccc5O[C@@H](CCc5c4)[C@H]6CO6.Fc7ccc8O[C@H](CCc8c7)[C@@H]9CO9.Fc%10ccc%11O[C@H](CCc%11c%10)[C@H]%12CO%12,KCFGCDSNSLCBLY-IOLMCIFPSA-N,-3.052101177
barium tartarate,,[Ba++].OC(C(O)C([O-])=O)C([O-])=O,HQYOWPDUMCBSLQ-UHFFFAOYSA-L,-3.052330404
"1,2-dichlorobenzene",,Clc1ccccc1Cl,RFFLAFLAYFXFSW-UHFFFAOYSA-N,-3.0533858
"2,4-dimethyl-1-nitrobenzene",,Cc1ccc(c(C)c1)[N+]([O-])=O,BBUPBICWUURTNP-UHFFFAOYSA-N,-3.055599607
"acetamide, n-(4-propoxyphenyl)-",,CCCOc1ccc(NC(C)=O)cc1,WDRXFPOGKSGHFM-UHFFFAOYSA-N,-3.0557
"benzoic acid, 2-hydroxy-5-(phenylazo)-",,OC(=O)C1=C/C(C=CC1=O)=N/Nc2ccccc2,RHNZXOLQSPSLLQ-XNTDXEJSSA-N,-3.0559
silicon(+4) cation tetraphosphate,,[Si+4].[Si+4].[Si+4].[O-][P]([O-])([O-])=O.[O-][P]([O-])([O-])=O.[O-][P]([O-])([O-])=O.[O-][P]([O-])([O-])=O,XLUBVTJUEUUZMR-UHFFFAOYSA-B,-3.055986963
chrysarobin,,Cc1cc(O)c2c(O)c3c(O)cccc3cc2c1,JBGKVNQFVAJOGC-UHFFFAOYSA-N,-3.0585
"(2E)-1-(2,6,6-trimethylcyclohex-1-en-1-yl)but-2-en-1-one",,CC(=C)[C@@H]1C[C@@H](CC[C@@]1(C)C=C)C(C)(C)O,GFJIQNADMLPFOW-VNHYZAJKSA-N,-3.059278372
"5,5-(spirocyclohexyl)barbituric  acid;  spiro-5,5-pentamethylenebarbituric acid",,O=C1NC(=O)C2(CCCCC2)C(=O)N1,NBLIVIWUPTWDMD-UHFFFAOYSA-N,-3.06
n-(5-chloro-4-methylthiazol-2-yl)propionamide,,CCC(=O)NC1=NC(=C(Cl)S1)C,QHLFJSMAWAWVRU-UHFFFAOYSA-N,-3.06
8-phenylpurine,,[NH]1C2=C(N=CN=C2)N=C1C3=CC=CC=C3,ULWZFKSDBAAHEI-UHFFFAOYSA-N,-3.06
Butyl 4-aminobenzoate,,CCCCOC(=O)C1=CC=C(N)C=C1,IUWVALYLNVXWKX-UHFFFAOYSA-N,-3.06
"(6-nitro-1,3-benzodioxol-5-yl)methanol",,C1OC2=C(O1)C=C(C(=C2)CO)[N+](=O)[O-],XSKQKDTZQNFCCB-UHFFFAOYSA-N,-3.06
decyl 2-hydroxypropanoate,,CCCCCCCCCCOC(=O)C(C)O,FUGCGCXGFWNOSY-UHFFFAOYSA-N,-3.06
4-hydroxy-3-(3-oxo-1-phenylbutyl)-2H-chromen-2-one,,CC(=O)CC(c1ccccc1)C2=C(O)Oc3ccccc3C2=O,QTXVAVXCBMYBJW-UHFFFAOYSA-N,-3.062508747
Methylprednisolone,CAS83-43-2,C[C@H]1C[C@H]2[C@@H]3CC[C@](O)(C(=O)CO)[C@@]3(C)C[C@H](O)[C@@H]2[C@@]2(C)C=CC(=O)C=C12,VHRSUDSXCMQTMA-PJHHCJLFSA-N,-3.06
"1,3-benzodioxole-5-methanol, 6-nitro-",,OCc1c2OCOc2ccc1[N+]([O-])=O,LJXBRPHBDWIHPR-UHFFFAOYSA-N,-3.0643
chlorotrifluoromethane,,FC(F)(F)Cl,AFYPFACVUDMOHA-UHFFFAOYSA-N,-3.0647
"3,4-dimethylbenzoic acid",,Cc1ccc(cc1C)C([O-])=O,OPVAJFQBSDUNQA-UHFFFAOYSA-M,-3.0653
"benzenemethanol, 2,4-dichloro-, propanoate",,CCC(=O)OCc1ccc(Cl)cc1Cl,ABVWCZFYRJJFFG-UHFFFAOYSA-N,-3.0665
5-heptyloxolan-2-one,,CCCCCCC[C@H]1CCC(=O)O1,PHXATPHONSXBIL-JTQLQIEISA-N,-3.06681876
Tolmetin,CAS26171-23-3,Cc1ccc(C(=O)c2ccc(CC(=O)O)n2C)cc1,UPSPUYADGBWSHF-UHFFFAOYSA-N,-3.07
2-phenylacetonitrile,,N#CCc1ccccc1,SUSQOBVLVYHIEX-UHFFFAOYSA-N,-3.068746
"phthalic acid, 3-nitro-, isopentyl ester",,CC(C)CCOC(=O)c1cccc(c1C([O-])=O)[N+]([O-])=O,WDTZUHJWPOQOFX-UHFFFAOYSA-M,-3.0689
menazon,,CO[P](=S)(OC)SCc1nc(N)nc(N)n1,SUYHYHLFUHHVJQ-UHFFFAOYSA-N,-3.069
"disodium 2,2'-ethene-1,2-diylbis[5-({4-anilino-6-[(2-hydroxyethyl)(methyl)amino]-1,3,5-triazin-2-yl}amino)benzenesulfonate]",,[Na+].[Na+].CN(CCO)c1nc(Nc2ccccc2)nc(Nc3ccc(/C=C/c4ccc(Nc5nc(Nc6ccccc6)nc(n5)N(C)CCO)cc4[S]([O-])(=O)=O)c(c3)[S]([O-])(=O)=O)n1,VVYVUOFMPAXVCH-QDBORUFSSA-L,-3.069321152
(3Z)-hex-3-en-1-yl methyl carbonate,,CC/C=C/CCOC(=O)OC,BLOXMGXSDAAJGX-SNAWJCMRSA-N,-3.069830648
1-amino-8-naphthalenesulfonic  acid,,NC1=CC=CC2=C1C(=CC=C2)[S](O)(=O)=O,CYJJLCDCWVZEDZ-UHFFFAOYSA-N,-3.07
Cinchonidine,,OC(c(c(c(nc1)ccc2)c2)c1)C(N(CCC3C4C=C)C4)C3,KMPWYEUPVWOPIM-UHFFFAOYSA-N,-3.07
8-Phenyl-7H-purine,,C1=CC=C(C2=NC3N=CN=CC3=N2)C=C1,HCBHHMUMLKPGQL-UHFFFAOYSA-N,-3.07
decanebis(thioic S-acid),,OC(=S)CCCCCCCCC(O)=S,OUADDINWGRXMJO-UHFFFAOYSA-N,-3.07
"4-[3-(4-hydroxyphenyl)-1,1-dioxobenzo[c]oxathiol-3-yl]phenol",,O=S1(=O)OC(C2=CC=C(O)C=C2)(C2=CC=C(O)C=C2)C2=C1C=CC=C2,BELBBZDIHDAJOR-UHFFFAOYSA-N,-3.07
2_amino_5_bromobenzoic_acid,,Brc1cc(C(O)=O)c(N)cc1,CUKXRHLWPSBCTI-UHFFFAOYSA-N,-3.07
"phosphonic diamide, p-(5-amino-3-phenyl-1h-1,2,4",,CN(C)[P](=O)(N(C)C)n1nc(nc1N)c2ccccc2,BABJTMNVJXLAEX-UHFFFAOYSA-N,-3.0709
"1,3-dichlorobenzene",,Clc1cccc(Cl)c1,ZPQOPVIELGIULI-UHFFFAOYSA-N,-3.072159801
"N-[(8E)-1,5-dimethylbicyclo[3.2.1]octan-8-ylidene]hydroxylamine",,CC12CCCC(C)(CC1)C2=NO,RADAAKRXEPVXBU-UHFFFAOYSA-N,-3.074152207
dialuminum hexacalcium oxygen(-2) anion trisulfate,,[O--].[O--].[O--].[O--].[O--].[O--].[Al+3].[Al+3].[Ca++].[Ca++].[Ca++].[Ca++].[Ca++].[Ca++].[O-][S]([O-])(=O)=O.[O-][S]([O-])(=O)=O.[O-][S]([O-])(=O)=O,FRPRHMFFTRIJHL-UHFFFAOYSA-H,-3.074227426
1-bromopentane,,CCCCCBr,YZWKKMVJZFACSU-UHFFFAOYSA-N,-3.0753
,CHEMBL2335881,COCCNCc1ccc(Nc2ncc3cc(ccc3n2)c4ccncc4)cc1,UKKAXPVDQSQDFB-UHFFFAOYSA-N,-3.075416694
"3-pyridinecarboxamide, n-decyl-",,CCCCCCCCCCNC(=O)c1cccnc1,STKCVSYDRUHCAT-UHFFFAOYSA-N,-3.0765
2-phenylethyl 2-methylpropanoate,,CC(C)C(=O)OCCc1ccccc1,JDQVBGQWADMTAM-UHFFFAOYSA-N,-3.079764438
"4-(2,6,6-trimethylcyclohex-1-en-1-yl)but-3-en-2-one",,CC(=O)/C=C/C1=C(C)CCCC1(C)C,PSQYTAPXSHCGMF-BQYQJAHWSA-N,-3.079863818
5-vinylbicyclo[2.2.1]hept-2-ene,,C=CC1CC2CC1C=C2,INYHZQLKOKTDAI-UHFFFAOYSA-N,-3.079886402
2-isobutyl-4-methyltetrahydro-2H-pyran,,CC(C)CC1CC(C)CCO1,LETLQGKRPMMKKC-UHFFFAOYSA-N,-3.079929481
"chlorfenac; 2,3,6-trichlorophenylacetic  acid",,OC(=O)CC1=C(Cl)C=CC(=C1Cl)Cl,QZXCCPZJCKEPSA-UHFFFAOYSA-N,-3.08
4-butylbenzoic acid,,CCCCC1=CC=C(C=C1)C(O)=O,JFKUBRAOUZEZSL-UHFFFAOYSA-N,-3.08
"n1,n1,n4-trimethylsulfanilamide",,CNC1=CC=C(C=C1)[S](=O)(=O)N(C)C,GZPBMGVKWGJDIF-UHFFFAOYSA-N,-3.08
4-bromoacetanilide,,O=C(Nc(ccc(c1)Br)c1)C,MSLICLMCQYQNPK-UHFFFAOYSA-N,-3.08
2-(4-oxo-1H-quinazolin-2-yl)benzenesulfonamide,,NS(=O)(=O)C1=C(C2=NC3=C(C=CC=C3)C(=O)N2)C=CC=C1,OSBLXHNHXUZTPI-UHFFFAOYSA-N,-3.08
"4-phenyldiazenylbenzene-1,3-diol",,OC1=CC(O)=C(N=NC2=CC=CC=C2)C=C1,BPTKLSBRRJFNHJ-UHFFFAOYSA-N,-3.08
endosulfan diol,,OCC1C(CO)C2(Cl)C(=C(Cl)C1(Cl)C2(Cl)Cl)Cl,GTSJHTSVFKEASK-UHFFFAOYSA-N,-3.0802
3-(cyclohexylamino)propane-1-sulfonic acid,,O[S](=O)(=O)CCCNC1CCCCC1,PJWWRFATQTVXHA-UHFFFAOYSA-N,-3.080206763
,CHEMBL2335891,COCCNC(C)c1ccc(Nc2ncc3cc(ccc3n2)c4ccncc4)cc1,GTVDKMPFFQQVEL-UHFFFAOYSA-N,-3.080612958
1-(chloromethyl)-2-methylbenzene,,Cc1ccccc1CCl,VQRBXYBBGHOGFT-UHFFFAOYSA-N,-3.081326924
"2-(2,4-dihydroxyphenyl)-3,5,7-trihydroxy-4H-chromen-4-one",,Oc1ccc(c(O)c1)C2=C(O)C(=O)c3c(O)cc(O)cc3O2,YXOLAZRVSSWPPT-UHFFFAOYSA-N,-3.082409058
acetochlor,,CCOCN(C(=O)CCl)c1c(C)cccc1CC,VTNQPKFIQCLBDU-UHFFFAOYSA-N,-3.0827
"benzoic acid, 4-[(3-pyridinylcarbonyl)amino]-",,OC(=O)c1ccc(NC(=O)c2cccnc2)cc1,LWFBUVHQVCTCKN-UHFFFAOYSA-N,-3.0832
"2,4,6-trinitroanisole",,COc1c(cc(cc1[N+]([O-])=O)[N+]([O-])=O)[N+]([O-])=O,FMXDVBRYDYFVGS-UHFFFAOYSA-N,-3.085
cyclohexyl 2-methylprop-2-enoate,,CC(=C)C(=O)OC1CCCCC1,OIWOHHBRDFKZNC-UHFFFAOYSA-N,-3.088564823
cinchonan-9-ol,,O[C@H]([C@H]1C[C@@H]2CCN1C[C@@H]2C=C)c3ccnc4ccccc34,KMPWYEUPVWOPIM-QAMTZSDWSA-N,-3.088723614
"(1R,2R,4R)-1,7,7-trimethylbicyclo[2.2.1]heptan-2-yl acetate (1S,2S,4S)-1,7,7-trimethylbicyclo[2.2.1]heptan-2-yl acetate",,CC(=O)O[C@H]1C[C@H]2CC[C@@]1(C)C2(C)C,KGEKLUUHTZCSIP-JFGNBEQYSA-N,-3.088778192
octadec-9-enoic acid - 2-aminoethanol (1:1),,CCCCCCCC/C=C/CCCCCCCC(O)=O.NCCO,KGWDUNBJIMUFAP-RRABGKBLSA-N,-3.08883445
n1-(1-butyl-2-oxopyrimidin-4-yl)sulfanilamide;  1-butyl-4-sulfapyrimidin-2-one,,CCCCN1C=CC(=NC1=O)N[S](=O)(=O)C2=CC=C(N)C=C2,YLHKVSOBVLMBIT-UHFFFAOYSA-N,-3.09
Santonin,,O=C(OC(C(C(C=CC1=O)(CC2)C)=C1C)C23)C3C,XJHDMGJURBVLLE-UHFFFAOYSA-N,-3.09
"5-(2-hydroxyethyl)-5-(2-methylpentyl)-2-sulfanylidene-1,3-diazinane-4,6-dione",,CCCC(C)CC1(CCO)C(=O)NC(=S)NC1=O,OBOCPCMQRKCAJW-UHFFFAOYSA-N,-3.09