Name,ID,SMILES,inchi,LogS
hydroxy-[4-[hydroxy(oxo)azaniumyl]oxypentan-2-yloxy]-oxoazanium,,CC(CC(C)O[N+](=O)O)O[N+](=O)O,YMLQURXMZDMOFD-UHFFFAOYSA-N,-2.22
2-methyl-6-nitro-1H-quinazolin-4-one,,CC1=NC(=O)C2=C(N1)C=CC(=C2)[N+](=O)[O-],VZHXAPYAFDFUSD-UHFFFAOYSA-N,-2.22
"3-(octylamino)propane-1,2-diol",,CCCCCCCCNCC(O)CO,SABZADASYUNNOZ-UHFFFAOYSA-N,-2.22
"Morphinan-6-alpha-ol, 3-(benzyloxy)-7,8-didehydro-4,5-alpha-epoxy-17-methyl-",,CN1CCC23C4=C5C=CC(OCC6=CC=CC=C6)=C4OC2C(O)C=CC3C1C5,RDJGWRFTDZZXSM-UHFFFAOYSA-N,-2.22
"2,6-dimethyloct-7-en-2-ol",,CC(CCCC(C)(C)O)C=C,XSNQECSCDATQEL-UHFFFAOYSA-N,-2.221207241
"1,1,3,3-tetramethylbutyl hydroperoxide",,CCOC(=O)C(=N/Nc1ccc(cc1)[N+]([O-])=O)/C(=O)C2=NN3C(=NC(=O)c4ccccc34)S2,KBAQMIYTOZVRBC-HZHRSRAPSA-N,-2.2216331
"3,5-pyridinedicarboxylic acid",,OC(=O)c1cncc(c1)C(O)=O,MPFLRYZEEAQMLQ-UHFFFAOYSA-N,-2.223
Exenatide,CAS141732-76-5,CCC(C)C(C(=O)NC(CCC(=O)O)C(=O)NC(CC1=CNC2=CC=CC=C21)C(=O)NC(CC(C)C)C(=O)NC(CCCCN)C(=O)NC(CC(=O)N)C(=O)NCC(=O)NCC(=O)N3CCCC3C(=O)NC(CO)C(=O)NC(CO)C(=O)NCC(=O)NC(C)C(=O)N4CCCC4C(=O)N5CCCC5C(=O)N6CCCC6C(=O)NC(CO)C(=O)N)NC(=O)C(CC7=CC=CC=C7)NC(=O)C(CC(C)C)NC(=O)C(CCCNC(=N)N)NC(=O)C(C(C)C)NC(=O)C(C)NC(=O)C(CCC(=O)O)NC(=O)C(CCC(=O)O)NC(=O)C(CCC(=O)O)NC(=O)C(CCSC)NC(=O)C(CCC(=O)N)NC(=O)C(CCCCN)NC(=O)C(CO)NC(=O)C(CC(C)C)NC(=O)C(CC(=O)O)NC(=O)C(CO)NC(=O)C(C(C)O)NC(=O)C(CC8=CC=CC=C8)NC(=O)C(C(C)O)NC(=O)CNC(=O)C(CCC(=O)O)NC(=O)CNC(=O)C(CC9=CN=CN9)N.CC(=O)O,YEAXWAGAAYUUBX-UHFFFAOYSA-N,-2.22
cloprop,,CC(Oc1cccc(Cl)c1)C(O)=O,YNTJKQDWYXUTLZ-UHFFFAOYSA-N,-2.2232
2-(2-chlorophenoxy)propanoic acid,,CC(Oc1ccccc1Cl)C(O)=O,ZGWNXHRVUJVMCP-UHFFFAOYSA-N,-2.2232
4-methyl-2-(2-methylprop-1-en-1-yl)oxane,,CC1CCOC(C1)C=C(C)C,CZCBTSFUTPZVKJ-UHFFFAOYSA-N,-2.224445792
"7-fluoro-1,3-dihydroindol-2-one",,Fc1cccc2CC(=O)Nc12,VMUIOEOYZHJLEZ-UHFFFAOYSA-N,-2.225136908
"3,3,3-tribromo-2,2-dimethylpropan-1-ol",,OCC(CBr)(CBr)CBr,QEJPOEGPNIVDMK-UHFFFAOYSA-N,-2.226109519
cocaine,,COC(=O)[C@H]1[C@H](CC2CCC1N2C)OC(=O)c3ccccc3,ZPUCINDJVBIVPJ-PFSRBDOWSA-N,-2.2267
Olopatadine Hydrochloride,CAS140462-76-6,CN(C)CC/C=C1/c2ccccc2COc2ccc(CC(=O)O)cc21.Cl,HVRLZEKDTUEKQH-NOILCQHBSA-N,-2.23
"benzamide, 2-(2-propenyloxy)-",,NC(=O)c1ccccc1OCC=C,FZEIWORKISALCO-UHFFFAOYSA-N,-2.2273
sulfacytine;  1-ethyl-4-sulfapyrimidine-2-one,,CCN1C=CC(=NC1=O)N[S](=O)(=O)C2=CC=C(N)C=C2,SIBQAECNSSQUOD-UHFFFAOYSA-N,-2.23
cocaine,,COC(=O)C1C(CC2CCC1N2C)OC(=O)c3ccccc3,ZPUCINDJVBIVPJ-UHFFFAOYSA-N,-2.23
1-hydroxy-3-oxoindene-2-sulfonic acid,,OC1=C(S(=O)(=O)O)C(=O)C2=C1C=CC=C2,RFDBNYYZXOVYMC-UHFFFAOYSA-N,-2.23
2-Bromotoluene,,Cc1ccccc1Br,QSSXJPIWXQTSIX-UHFFFAOYSA-N,-2.23
"acetamide, 2-chloro-n-(chloroacetyl)-",,ClCC(=O)NC(=O)CCl,UWZCYHHAEYIVRW-UHFFFAOYSA-N,-2.2304
"benzoic acid, 5-acetyl-2-hydroxy-",,CC(=O)c1ccc(O)c(c1)C([O-])=O,NZRDKNBIPVLNHA-UHFFFAOYSA-M,-2.2304
2-phenylethyl acetate,,CC(=O)OCCc1ccccc1,MDHYEMXUFSJLGV-UHFFFAOYSA-N,-2.231757445
2-methylbut-2-ene,,CC=C(C)C,BKOOMYPCSUNDGP-UHFFFAOYSA-N,-2.233150945
"1,1'-binaphthalene-8,8'-dicarboxylic acid",,OC(=O)c1cccc2cccc(c3cccc4cccc(C(O)=O)c34)c12,XGDAODQNSVFBGM-UHFFFAOYSA-N,-2.233440337
Oxaprozin,CAS21256-18-8,O=C(O)CCc1nc(-c2ccccc2)c(-c2ccccc2)o1,OFPXSFXSNFPTHF-UHFFFAOYSA-N,-2.24
"phosphorohydrazidic acid, diphenyl ester",,NN[P](=O)(Oc1ccccc1)Oc2ccccc2,OTRWTWZSLKFJGX-UHFFFAOYSA-N,-2.2373
"acetamide, 2-(benzoyloxy)-n-ethyl-",,CCNC(=O)COC(=O)c1ccccc1,FPWKJKWOCSENMO-UHFFFAOYSA-N,-2.2373
harmony,,COC(=O)c1sccc1[S](=O)(=O)NC(=O)Nc2nc(C)nc(OC)n2,AHTPATJNIAFOLR-UHFFFAOYSA-N,-2.2379
"2-bromo-3,3,3-trifluoroprop-1-ene",,FC(F)(F)C(Br)=C,QKBKGNDTLQFSEU-UHFFFAOYSA-N,-2.238585126
"furan-2,5-dicarboxylic acid",,OC(=O)c1oc(cc1)C(O)=O,CHTHALBTIRVDBM-UHFFFAOYSA-N,-2.239623736
Isosorbide 5-Mononitrate,CAS16051-77-7,O=[N+]([O-])O[C@@H]1CO[C@@H]2[C@@H](O)CO[C@H]12,YWXYYJSYQOXTPL-SLPGGIOYSA-N,-2.24
Isosorbide 2-Mononitrate,CAS16106-20-0,O=[N+]([O-])O[C@H]1CO[C@H]2[C@@H]1OC[C@H]2O,YWXYYJSYQOXTPL-JGWLITMVSA-N,-2.24
hexyl  5-fluorouracil-1-carboxylate;  1-hexoxycarbonyl-5-fluorouracil,,CCCCCCOC(=O)N1C=C(F)C(=O)NC1=O,LAUBAKJLUNBTEP-UHFFFAOYSA-N,-2.24
1-amino-6-naphthalenesulfonic  acid;  5-amino-2-naphthalenesulfonic acid,,NC1=CC=CC2=C1C=CC(=C2)[S](O)(=O)=O,UWPJYQYRSWYIGZ-UHFFFAOYSA-N,-2.24
"1,4-dimethyl-2-propyl-1,2,3,4-tetrahydro-2,4a,9-triazaanthracen-10-one",,CCCN1CC(C)N2C(=O)C3=C(C=CC=C3)N=C2C1C,CRLNRRULCQXUML-UHFFFAOYSA-N,-2.24
octanebis(thioic S-acid),,OC(=S)CCCCCCC(O)=S,OITULTNTMHGRLX-UHFFFAOYSA-N,-2.24
"N,N'-bis(3,5,5-trimethylhexyl)ethane-1,2-diamine",,CC(CCNCCNCCC(C)CC(C)(C)C)CC(C)(C)C,NGCCPWWOZGTTHT-UHFFFAOYSA-N,-2.24
(4-aminophenyl)sulfonylthiourea,,NC(=S)NS(=O)(=O)C1=CC=C(N)C=C1,UEMLYRZWLVXWRU-UHFFFAOYSA-N,-2.24
Diisopropylsulfide,,CC(C)SC(C)C,XYWDPYKBIRQXQS-UHFFFAOYSA-N,-2.24
dimethirimol,,CCCCC1=C(C)NC(=NC1=O)N(C)C,CJHXCRMKMMBYJQ-UHFFFAOYSA-N,-2.2416
ethyl [(4-methylphenyl)sulfonyl]carbamate,,CCOC(=O)N[S](=O)(=O)c1ccc(C)cc1,DFWQXANLGSXMKF-UHFFFAOYSA-N,-2.243098748
"propanoic acid, 3-hydroxy-2-methyl-, 2,3,3a,4,5,",,CC(CO)C(=O)O[C@H]1CC(=C/CCC(=C/[C@H]2OC(=O)C(=C)[C@H]12)/CO)/C,VOOFFTMORIBISQ-UMRVURNHSA-N,-2.2436
metribuzin,,CSC1=NN=C(C(=O)N1N)C(C)(C)C,FOXFZRUHNHCZPX-UHFFFAOYSA-N,-2.245
1-methoxyhexane,,CCCCCCOC,ICBJCVRQDSQPGI-UHFFFAOYSA-N,-2.245085326
"1,4-dimethoxybenzene",,COc1ccc(OC)cc1,OHBQPCCCRFSCAX-UHFFFAOYSA-N,-2.245531528
"1'-(phenylmethyl)-[1,4'-bipiperidine]-4'-carbonitrile",,N#CC1(CC[NH+](CC1)Cc2ccccc2)[NH+]3CCCCC3,XXZATAXHOSMHKY-UHFFFAOYSA-P,-2.245992211
3-(4-methoxyphenyl)-2-methylpropanal,,COc1ccc(CC(C)C=O)cc1,VLFBSPUPYFTTNF-UHFFFAOYSA-N,-2.24666187
"butanoic acid, 4,4'-diselenobis-",,OC(=O)CCC[Se][Se]CCCC(O)=O,WORSJCPMKUOXAD-UHFFFAOYSA-N,-2.2471
"benzenesulfonamide, 4-[(3-hydroxypropyl)thio]-",,N[S](=O)(=O)c1ccc(SCCCO)cc1,BHBPVVOUUXIZBX-UHFFFAOYSA-N,-2.2472
4-bromo-1-butene,,BrCCC=C,DMAYBPBPEUFIHJ-UHFFFAOYSA-N,-2.2473
"benzenemethanol, 2,4-dichloro-",,OCc1ccc(Cl)cc1Cl,DBHODFSFBXJZNY-UHFFFAOYSA-N,-2.248
"uridine, 2'-deoxy-5-iodo-",,OCC1OC(CC1O)N2C=C(I)C(=O)NC2=O,XQFRJNBWHJMXHO-UHFFFAOYSA-N,-2.2481
5-ethyl-5-(3-methyl-2-butenyl)barbituric  acid,,CCC1(CC=C(C)C)C(=O)NC(=O)NC1=O,VDVCBHJNKZNXKT-UHFFFAOYSA-N,-2.25
methyl 4-(3-adamantan-1-ylureido)butanoate; 4-(3-adamantan-1-ylureido)butanoic acid methyl ester,,COC(=O)CCCNC(=O)N[C]12C[CH]3[CH2]C([CH2][CH](C3)C1)C2,ZHGXICWKWFWBKM-UHFFFAOYSA-N,-2.25
"7-hydroxy-6,7-dihydro-5h-2-sulfamoylthieno[3,2-b]thiopyran",,N[S](=O)(=O)C1=CC2=C(S1)C(O)CCS2,UGQVTTBSGZLNIL-UHFFFAOYSA-N,-2.25
9-(2-hydroxy-3-nonyl)adenine,,CCCCCCC(C(C)O)[N]1C=NC2=C1N=CN=C2N,IOSAAWHGJUZBOG-UHFFFAOYSA-N,-2.25
dinoseb  acetate,,CCC(C)C1=C(OC(C)=O)C(=CC(=C1)[N+]([O-])=O)[N+]([O-])=O,RDJTWDKSYLLHRW-UHFFFAOYSA-N,-2.25
"2-sulfamoyl-5-(4'-anisyl)sulfonylamido-1,3,4-thiadiazole; 5-(4-methoxybenzenesulfonylamino)-1,3,4-thiadiazole-2-sulfonamide",,COC1=CC=C(C=C1)[S](=O)(=O)NC2=NN=C(S2)[S](N)(=O)=O,DWBVNWWEQWTHLV-UHFFFAOYSA-N,-2.25
pentyl propanoate,,CCCCCOC(=O)CC,TWSRVQVEYJNFKQ-UHFFFAOYSA-N,-2.250522404
"diethyl cyclohexane-1,4-dicarboxylate",,CCOC(=O)C1CCC(CC1)C(=O)OCC,KRJHRNUTLDTSKY-UHFFFAOYSA-N,-2.251273114
"2,3,5-trimethylphenol",,Cc1cc(C)c(C)c(O)c1,OGRAOKJKVGDSFR-UHFFFAOYSA-N,-2.252203004
Cetrorelix,PubChemCID25074887,CC(C)CC(C(=O)NC(CCCN=C(N)N)C(=O)N1CCCC1C(=O)NC(C)C(=O)N)NC(=O)C(CCCNC(=O)N)NC(=O)C(CC2=CC=C(C=C2)O)NC(=O)C(CO)NC(=O)C(CC3=CN=CC=C3)NC(=O)C(CC4=CC=C(C=C4)Cl)NC(=O)C(CC5=CC6=CC=CC=C6C=C5)NC(=O)C,SBNPWPIBESPSIF-UHFFFAOYSA-N,-2.25
"phthalic acid, 3,4-dimethoxy-, 2-ethyl ester",,CCOC(=O)c1ccc(OC)c(OC)c1C([O-])=O,YSSRAFLMFRNXKL-UHFFFAOYSA-M,-2.253
"glycine, n-[(benzoyloxy)acetyl]-n-methyl-",,CN(CC(O)=O)C(=O)COC(=O)c1ccccc1,SHYSSTOSYAOGMS-UHFFFAOYSA-N,-2.254
"trizinc(2+) ion bis(2-hydroxypropane-1,2,3-tricarboxylate)",,[Zn++].[Zn++].[Zn++].OC(CC([O-])=O)(CC([O-])=O)C([O-])=O.OC(CC([O-])=O)(CC([O-])=O)C([O-])=O,WGIWBXUNRXCYRA-UHFFFAOYSA-H,-2.254040258
"2,4(1h,3h)-pyrimidinedione, 5-methyl-1-(phenylme",,CC1=CN(Cc2ccccc2)C(=O)NC1=O,YNHQGNHVHHZPTA-UHFFFAOYSA-N,-2.2558
2-ethylhex-2-enal,,CCC\C=C(/CC)C=O,PYLMCYQHBRSDND-SOFGYWHQSA-N,-2.255957874
"2-(2,6-dimethylphenoxy)acetic acid",,Cc1cccc(C)c1OCC(O)=O,MLBCURLNKYKBEQ-UHFFFAOYSA-N,-2.256644531
2-thiouracil,,O=C1NC(=S)NC=C1,ZEMGGZBWXRYJHK-UHFFFAOYSA-N,-2.2573
1-octylpyrrolidin-2-one,,CCCCCCCCN1CCCC1=O,WPPOGHDFAVQKLN-UHFFFAOYSA-N,-2.257749011
"N-(2,4,4-trimethylpentan-2-yl)prop-2-enamide",,CC(C)(C)CC(C)(C)NC(=O)C=C,YRDNVESFWXDNSI-UHFFFAOYSA-N,-2.258829244
triphenylcarbinol,,OC(c1ccccc1)(c2ccccc2)c3ccccc3,LZTRCELOJRDYMQ-UHFFFAOYSA-N,-2.2596
5-aminosalicylic  acid;  mesalamine;  mesalazine,,NC1=CC(=C(O)C=C1)C(O)=O,KBOPZPXVLCULAV-UHFFFAOYSA-N,-2.26
3-benzoyl-5-fluorouracil,,FC1=CNC(=O)N(C1=O)C(=O)C2=CC=CC=C2,OAPBZIITNDJWQW-UHFFFAOYSA-N,-2.26
"cycluron; 3-cyclooctyl-1,1-dimethylurea",,CN(C)C(=O)NC1CCCCCCC1,DQZCVNGCTZLGAQ-UHFFFAOYSA-N,-2.26
1-(2-methylmorpholin-4-yl)sulfonyl-3-(6-bicyclo[2.2.1]-2-heptenylmethyl)urea,,CC1CN(CCO1)[S](=O)(=O)NC(=O)NCC2CC3CC2C=C3,FKKUGJURZVYUBG-UHFFFAOYSA-N,-2.26
benzylimidazole,,n1(Cc2ccccc2)cncc1,KKKDZZRICRFGSD-UHFFFAOYSA-N,-2.26
methyl (1-phenylsulfonyl) cyclopropane carboxyla,,COC(=O)C1(CC1)[S](=O)(=O)c2ccccc2,OACLWBSJZSLACO-UHFFFAOYSA-N,-2.2601
2-[(2-methylprop-2-enoyl)oxy]ethyl 2-methylprop-2-enoate,,CC(=C)C(=O)OCCOC(=O)C(C)=C,STVZJERGLQHEKB-UHFFFAOYSA-N,-2.261313265
2-hydroxy-5-nitrobenzoic acid,,OC(=O)c1cc(ccc1O)[N+]([O-])=O,PPDRLQLKHRZIJC-UHFFFAOYSA-N,-2.262733408
2-ethylhexanal,,CCCCC(CC)C=O,LGYNIFWIKSEESD-UHFFFAOYSA-N,-2.262840797
"2-pteridinol, 6,7-diethyl-",,CCc1nc2cnc(O)nc2nc1CC,GSGKUGGVXZDGBA-UHFFFAOYSA-N,-2.2644
chlorothymol,,CC(C)c1cc(Cl)c(C)cc1O,KFZXVMNBUMVKLN-UHFFFAOYSA-N,-2.2664
(4-formylphenyl)boronic acid,,OB(O)c1ccc(C=O)cc1,VXWBQOJISHAKKM-UHFFFAOYSA-N,-2.267384667
"propanoic acid, 3,3'-diselenobis-",,OC(=O)CC[Se][Se]CCC(O)=O,AXJLEYVRLPNPGF-UHFFFAOYSA-N,-2.2681
"2,2,2-trifluoroethyl methacrylate",,CC(=C)C(=O)OCC(F)(F)F,QTKPMCIBUROOGY-UHFFFAOYSA-N,-2.268475684
"busulfan;  busulphan;  1,4-di(methylsulfonyloxy)butane",,C[S](=O)(=O)OCCCCO[S](C)(=O)=O,COVZYZSDYWQREU-UHFFFAOYSA-N,-2.27
n-(benzoyloxyacetyl)prolinamide,,NC(=O)C1CCCN1C(=O)COC(=O)C2=CC=CC=C2,QUIKDFWIKDMXIO-UHFFFAOYSA-N,-2.27
(+)-fenchol,,CC1(C)[C@@H]2CC[C@@](C)(C2)[C@@H]1O,IAIHUHQCLTYTSF-MRTMQBJTSA-N,-2.2702
"l-tryptophan, n-acetyl, ethyl ester",,CCOC(=O)[C@H](Cc1c[nH]c2ccccc12)N(C)C=O,LYXGYFZZVMODTB-AWEZNQCLSA-N,-2.2709
"1-butyl-6-hydroxy-4-methyl-2-oxo-1,2-dihydropyridine-3-carbonitrile",,CCCCN1C(=O)C=C(C)C(=C1O)C#N,JSCJSXHNBIXPBU-UHFFFAOYSA-N,-2.272990744
n-benzoylbenzamide,,O=C(NC(=O)c1ccccc1)c2ccccc2,ZHDORMMHAKXTPT-UHFFFAOYSA-N,-2.273
tin(2+) ion oxalate,,[Sn++].[O-]C(=O)C([O-])=O,OQBLGYCUQGDOOR-UHFFFAOYSA-L,-2.274008719
tetramethyl decynediol,,CC(C)C(C)C(C)C(O)C#CC(C)C(C)O,WWPTYZFXUOTSDY-UHFFFAOYSA-N,-2.2756
"3,4-dimethylbenzaldehyde",,Cc1ccc(C=O)cc1C,POQJHLBMLVTHAU-UHFFFAOYSA-N,-2.277035079
Cocaine,CAS50-36-2,COC(=O)[C@H]1[C@@H](OC(=O)c2ccccc2)C[C@H]2CC[C@@H]1N2C,ZPUCINDJVBIVPJ-CBBWQLFWSA-N,-2.28
4-nitroaniline,,Nc1ccc(cc1)[N+]([O-])=O,TYMLOMAKGOJONV-UHFFFAOYSA-N,-2.2782
"acetic acid, [2-methoxy-4-(2-propenyl)phenoxy]-",,COc1cc(CC=C)ccc1OCC([O-])=O,FQBPCNCFOCPCJP-UHFFFAOYSA-M,-2.2786
N-acetyl-N-[2-(N-acetylacetamido)ethyl]acetamide,,CC(=O)N(CCN(C(C)=O)C(C)=O)C(C)=O,BGRWYDHXPHLNKA-UHFFFAOYSA-N,-2.279225735
"[9-methyl-6-(propan-2-yl)-1,4-dioxaspiro[4.5]decan-2-yl]methanol",,CC(C)C1CCC(C)CC12OCC(CO)O2,ZBJCYZPANVLBRK-UHFFFAOYSA-N,-2.279385535
naled,,CO[P](=O)(OC)OC(Br)C(Cl)(Cl)Br,BUYMVQAILCEWRR-UHFFFAOYSA-N,-2.2797
1-(n-methyl)carbamoyl-5-fluorouracil,,CNC(=O)N1C=C(F)C(=O)NC1=O,CDACFMJJRHUMNA-UHFFFAOYSA-N,-2.28
"2-benzoyloxy-n,n-(diethyl)propionamide;  2-benzoyloxy-n,n-(diethyl)propanoic acid amide",,CCN(CC)C(=O)C(C)OC(=O)C1=CC=CC=C1,BZZFPIRKNVWTKJ-UHFFFAOYSA-N,-2.28
N-Methoxy-4-nitrobenzamide,,CONC(=O)C1=CC=C(C=C1)[N+](=O)[O-],HIJYJXGWKHLZPA-UHFFFAOYSA-N,-2.28
6-hydroxy-5-(phenylmethyl)-2-propan-2-ylmorpholin-3-one,,CC(C)C1OC(O)C(CC2=CC=CC=C2)NC1=O,OVJQWEVXNMGBPH-UHFFFAOYSA-N,-2.28
2-naphthol,,Oc1ccc2ccccc2c1,JWAZRIHNYRIHIV-UHFFFAOYSA-N,-2.2809
maleanilic acid,,OC(=O)\C=C/C(=O)Nc1ccccc1,WHZLCOICKHIPRL-SREVYHEPSA-N,-2.2815
"lactamide, n-octyl-",,CCCCCCCCNC(=O)C(C)O,QGZRRRDVKLFCCS-UHFFFAOYSA-N,-2.2827
4-(dimethylamino)benzaldehyde,,CN(C)c1ccc(C=O)cc1,BGNGWHSBYQYVRX-UHFFFAOYSA-N,-2.28276885
diphenic acid,,OC(=O)c1ccccc1c2ccccc2C(O)=O,GWZCCUDJHOGOSO-UHFFFAOYSA-N,-2.2839
"2,4,6(1h,3h,5h)-pyrimidinetrione, 5-nitro-",,[O-][N+](=O)C1C(=O)NC(=O)NC1=O,ABICJYZKIYUWEE-UHFFFAOYSA-N,-2.284
"dl-lysine, n2-benzoyl-",,NCCCCC(NC(=O)c1ccccc1)C(O)=O,IYHOIXNPULYXFO-UHFFFAOYSA-N,-2.2845
molinate,,CCSC(=O)N1CCCCCC1,DEDOPGXGGQYYMW-UHFFFAOYSA-N,-2.2858
dimethyl glyoxime,,C\C(NO)=C(/C)N=O,OFZZNQXYRRSXOI-ARJAWSKDSA-N,-2.2868
"2,6-dimethylheptan-2-ol",,CC(C)CCCC(C)(C)O,HGDVHRITTGWMJK-UHFFFAOYSA-N,-2.286983634
butane-1-thiosulfinic acid s-butyl ester,,CCCCS[S](=O)CCCC,XSHPYKKTJQSNFE-UHFFFAOYSA-N,-2.2886
hypoxanthine,,O=C1N=CNc2nc[nH]c12,FDGQSTZJBFJUBT-UHFFFAOYSA-N,-2.2888
Brimonidine,CAS59803-98-4,Brc1c(NC2=NCCN2)ccc2nccnc12,XYLJNLCSTIOKRM-UHFFFAOYSA-N,-2.29
p-chlorophenoxyacetic acid,,OC(=O)COc1ccc(Cl)cc1,SODPIMGUZLOIPE-UHFFFAOYSA-N,-2.29
"6,7-dimethyl-3h-pteridin-4-one;  4-hydroxy-6,7-dimethylpteridine",,CC1=NC2=C(N=C1C)C(=O)NC=N2,YZZHLQUXFAOLAA-UHFFFAOYSA-N,-2.29
nitrofuranylamide derivative (lee 952);  n-methyl-n-[4-(2-morpholin-4-ylethoxy)benzyl]-5-nitro-2-furamide,,CN(CC1=CC=C(OCCN2CCOCC2)C=C1)C(=O)C3=CC=C(O3)[N+]([O-])=O,OWPRYUHHSFTVHN-UHFFFAOYSA-N,-2.29
1-iodopropane,,CCCI,PVWOIHVRPOBWPI-UHFFFAOYSA-N,-2.29
2-(3-hydroxyphenyl)sulfonylphenol,,O=S(=O)(C1=CC(O)=CC=C1)C1=C(O)C=CC=C1,AQHJGSVRTSBTKR-UHFFFAOYSA-N,-2.29
"benzene-1,4-dicarbohydrazide",,NNC(=O)C1=CC=C(C(=O)NN)C=C1,ALHNLFMSAXZKRC-UHFFFAOYSA-N,-2.29
phenobarbital,,C1(NC(C(c2ccccc2)(C(=O)N1)CC)=O)=O,DDBREPKUVSBGFI-UHFFFAOYSA-N,-2.29
2-(2-methylphenoxymethyl)oxirane,,Cc1ccccc1OCC2CO2,KFUSXMDYOPXKKT-UHFFFAOYSA-N,-2.291104446
"1,3-benzenedicarboxylic acid, 2-methoxy-",,COc1c(cccc1C(O)=O)C(O)=O,ZRWAPLTWCQQSAN-UHFFFAOYSA-N,-2.2926
4-[(4-aminophenyl)methyl]aniline,,Nc1ccc(Cc2ccc(N)cc2)cc1,YBRVSVVVWCFQMG-UHFFFAOYSA-N,-2.292933442
4-chloro-2-(trifluoromethyl)aniline,,Nc1ccc(Cl)cc1C(F)(F)F,CVINWVPRKDIGLL-UHFFFAOYSA-N,-2.293481376
bromocyclohexane,,BrC1CCCCC1,AQNQQHJNRPDOQV-UHFFFAOYSA-N,-2.2943
2-pteridinamine,,Nc1ncc2nccnc2n1,HYCZDWGCJOEHBO-UHFFFAOYSA-N,-2.2979
"[1,2,5]selenadiazolo[3,4-d]pyrimidine-5,7(4h,6h)",,CN1C(=O)N(C)c2n[se]nc2C1=O,DBYGTBWHDSPWSZ-UHFFFAOYSA-N,-2.2994
"benzoic acid, 2-hydroxy-, methoxymethyl ester",,COCOC(=O)c1ccccc1O,NTIBMIIYTKPBNR-UHFFFAOYSA-N,-2.3
cymoxanil,,CCNC(=O)NC(=O)C(=N/OC)/C#N,XERJKGMBORTKEO-VZUCSPMQSA-N,-2.3
pentyl 4-(3-cyclohexylureido)butanoate;  4-(3-cyclohexylureido)butanoic acid pentyl ester,,CCCCCOC(=O)CCCNC(=O)NC1CCCCC1,RQHYVHQLEWVZJX-UHFFFAOYSA-N,-2.3
"5-(1-aziridinyl)-2,4-dinitrobenzamide",,NC(=O)C1=CC(=C(C=C1[N+]([O-])=O)[N+]([O-])=O)N2CC2,WOCXQMCIOTUMJV-UHFFFAOYSA-N,-2.3
"sulfisomidine;  2,6-dimethyl-4-sulfapyrimidine",,CC1=CC(=NC(=N1)C)N[S](=O)(=O)C2=CC=C(N)C=C2,YZMCKZRAOLZXAZ-UHFFFAOYSA-N,-2.3
"n1,n1,n4-trimethyl-n4-acetylsulfanilamide",,CN(C)[S](=O)(=O)C1=CC=C(C=C1)N(C)C(C)=O,YDHAYUGJQGJRIJ-UHFFFAOYSA-N,-2.3
3-pentanoyl-5-fluorouracil;  3-valeroyl-5-fluorouracil,,CCCCC(=O)N1C(=O)NC=C(F)C1=O,HNRADDKFURCLRD-UHFFFAOYSA-N,-2.3
7-(propionyloxymethyl)theophylline;  7-(propanoyloxymethyl)theophylline,,CCC(=O)OC[N]1C=NC2=C1C(=O)N(C)C(=O)N2C,IMLOLBJKVGTVRZ-UHFFFAOYSA-N,-2.3
caprylic_acid,,O=C(O)CCCCCCC,WWZKQHOCKIZLMA-UHFFFAOYSA-N,-2.3
Fensulfothion,,CCOP(=S)(OCC)Oc1ccc(cc1)S(C)=O,XDNBJTQLKCIJBV-UHFFFAOYSA-N,-2.3
(~{N}~{Z})-~{N}-[(1~{Z})-1-hydroxyimino-1-phenylpropan-2-ylidene]hydroxylamine,,CC(=NO)C(=NO)C1=CC=CC=C1,OHOFOAMRUFMQPH-UHFFFAOYSA-N,-2.3
"1-(1,5-dimethyl-3-oxo-2-phenylpyrazol-4-yl)-3-phenylurea",,CC1=C(NC(=O)NC2=CC=CC=C2)C(=O)N(C2=CC=CC=C2)N1C,MHDYKXPQKDDFFZ-UHFFFAOYSA-N,-2.3
2-amino-9-[4-(hydroxymethyl)-1-cyclopent-2-enyl]-3H-purin-6-one,,NC1=NC2=C(N=CN2C2C=CC(CO)C2)C(O)=N1,XSSYCIGJYCVRRK-UHFFFAOYSA-N,-2.3
Phenacetin  ,,CCOC1=CC=C(NC(C)=O)C=C1,CPJSUEIXXCENMM-UHFFFAOYSA-N,-2.3
cloethocarb,,CNC(=O)Oc1ccccc1OC(CCl)OC,PITWUHDDNUVBPT-UHFFFAOYSA-N,-2.3005
"benzamide, 4-(aminosulfonyl)-",,NC(=O)c1ccc(cc1)[S](N)(=O)=O,MWFFIRCXGDGFQB-UHFFFAOYSA-N,-2.3015
"undecanoic acid, 11-[(6-aminohexyl)amino]-",,NCCCCCCNCCCCCCCCCCC(O)=O,UHGYYQUSAMHAAH-UHFFFAOYSA-N,-2.3017
"3,7-dimethylnon-6-en-1-yn-3-ol",,CC/C(C)=C/CCC(C)(O)C#C,OJXKWJPEGDDDHH-CSKARUKUSA-N,-2.302767888
divanadium pentaoxide,,O=[V](=O)O[V](=O)=O,GNTDGMZSJNCJKK-UHFFFAOYSA-N,-2.303614127
"1-heptanol, 6-methyl-",,CC(C)CCCCCO,BWDBEAQIHAEVLV-UHFFFAOYSA-N,-2.3038
"1,2,3,5-tetrafluorobenzene",,Fc1cc(F)c(F)c(F)c1,UHHYOKRQTQBKSB-UHFFFAOYSA-N,-2.3057
decanedioic acid,,OC(=O)CCCCCCCCC(O)=O,CXMXRPHRNRROMY-UHFFFAOYSA-N,-2.3059
N-{4-[(2-hydroxyethyl)sulfonyl]phenyl}acetamide,,CC(=O)Nc1ccc(cc1)[S](=O)(=O)CCO,XIICKRYAUAVEQS-UHFFFAOYSA-N,-2.306932302
"naphthalene-1,8-diamine",,Nc1cccc2cccc(N)c12,YFOOEYJGMMJJLS-UHFFFAOYSA-N,-2.307122857
aphidan,,CC[S](=O)CS[P](=S)(OC(C)C)OC(C)C,KOTOUBGHZHWCCJ-UHFFFAOYSA-N,-2.3074
1-isocyanato-4-(4-isocyanato-3-methylphenyl)-2-methylbenzene,,Cc1cc(ccc1N=C=O)c2ccc(N=C=O)c(C)c2,ICLCCFKUSALICQ-UHFFFAOYSA-N,-2.308127519
"acetamide, n-(4-chloro-2-methylphenyl)-",,CC(=O)Nc1ccc(Cl)cc1C,WMHHXYOPEQARIN-UHFFFAOYSA-N,-2.3097
vinbarbital;  5-ethyl-5-(1-methyl-1-butenyl)barbituric  acid,,CC/C=C(C)/C1(CC)C(=O)NC(=O)NC1=O,RAFOHKSPUDGZPR-VOTSOKGWSA-N,-2.31
7-aminopteridine,,NC1=NC2=C(C=NC=N2)N=C1,KJVGXOHRFWZQJB-UHFFFAOYSA-N,-2.31
4-aminopteridine,,NC1=NC=NC2=C1N=CC=N2,VFATYAVSACUHHG-UHFFFAOYSA-N,-2.31
"1-methyl-2-propyl-1,2,3,4-tetrahydro-2,4a,9-triazaanthracen-10-one",,CCCN1CCN2C(=O)C3=C(C=CC=C3)N=C2C1C,NOQKFJQTGOUYSP-UHFFFAOYSA-N,-2.31
tetrachloromethane,,ClC(Cl)(Cl)Cl,VZGDMQKNWNREIO-UHFFFAOYSA-N,-2.31
1-ethyl-3-oxo-1~{H}-2-benzofuran-5-carbonitrile,,CCC1OC(=O)C2=C1C=CC(C#N)=C2,RICNCRLQCBWINE-UHFFFAOYSA-N,-2.31
"3,3,6,6-tetraethylpiperazine-2,5-dione",,CCC1(CC)NC(=O)C(CC)(CC)NC1=O,TVVFKLAMNNXRRT-UHFFFAOYSA-N,-2.31
"2-(4-methyl-2,6-dioxo-3H-pyrimidin-5-yl)acetic acid",,CC1=C(CC(=O)O)C(=O)NC(=O)N1,GFWWREGOTNQVGC-UHFFFAOYSA-N,-2.31
vinbarbital,,CCC=C(C)C1(CC)C(=O)NC(=O)NC1=O,RAFOHKSPUDGZPR-UHFFFAOYSA-N,-2.31
"2-(3,5-dibromo-4-oxopyridin-1-yl)-~{N},~{N}-diethylacetamide",,CCN(CC)C(=O)CN1C=C(Br)C(=O)C(Br)=C1,CVIOXIJACLUKFU-UHFFFAOYSA-N,-2.31
"2-acetamido-3-(2,6-dichlorophenyl)sulfanylpropanoic acid",,CC(=O)NC(CSC1=C(Cl)C=CC=C1Cl)C(=O)O,DQJMRHANOSWXOV-UHFFFAOYSA-N,-2.31
2-acetamido-3-(1H-indol-3-yl)propanoic acid,,CC(=O)NC(CC1=CNC2=C1C=CC=C2)C(=O)O,DZTHIGRZJZPRDV-UHFFFAOYSA-N,-2.31
n-acetyl-dl-tryptophan,,CC(=O)N[C@@H](Cc1c[nH]c2ccccc12)C([O-])=O,DZTHIGRZJZPRDV-LBPRGKRZSA-M,-2.3122
"3-(2H-1,3-benzodioxol-5-yl)-2-methylpropanal",,CC(Cc1ccc2OCOc2c1)C=O,BOPPSUHPZARXTH-UHFFFAOYSA-N,-2.31343814
ethyl 3-methyl-3-phenyloxirane-2-carboxylate,,CCOC(=O)C1OC1(C)c2ccccc2,LQKRYVGRPXFFAV-UHFFFAOYSA-N,-2.314375006
"imidodicarbonimidic diamide, n-1-naphthalenyl-",,NC(=N)NC(=N)Nc1cccc2ccccc12,UUBZPMKBMHXGNE-UHFFFAOYSA-N,-2.3151
"1-naphthalenecarboxylic acid, 2-chloro-",,OC(=O)c1c(Cl)ccc2ccccc12,HUNGHFUNVZTRKO-UHFFFAOYSA-N,-2.3152
imazethapyr,,CCc1cnc(C2=NC(C)(C(C)C)C(=O)N2)c(c1)C(O)=O,XVOKUMIPKHGGTN-UHFFFAOYSA-N,-2.3153
"3,5-dichloroaniline",,Nc1cc(Cl)cc(Cl)c1,UQRLKWGPEVNVHT-UHFFFAOYSA-N,-2.3153
"sodium 4-chloro-3-{4-[(E)-2-[5-chloro-2-(2-chlorophenoxy)phenyl]diazen-1-yl]-3-methyl-5-oxo-4,5-dihydro-1H-pyrazol-1-yl}benzene-1-sulfonate",,[Na+].CC1=NN(C(=O)C1N=Nc2cc(Cl)ccc2Oc3ccccc3Cl)c4cc(ccc4Cl)[S]([O-])(=O)=O,OCJDFNKUOCKZCE-UHFFFAOYSA-M,-2.316221585
"Phosphorodithioic acid, mixed O,O-bis(1,3-dimethylbutyl and iso-Pr) esters, zinc salts",,[Zn++].CC(C)CC(C)O[P]([S-])(=S)OC(C)C.CC(C)CC(C)O[P]([S-])(=S)OC(C)C,ZLJYMIJYVMPKAH-UHFFFAOYSA-L,-2.318974913
d-borneol,,CC1(C)C2CCC1(C)[C@@H](O)C2,DTGKSKDOIYIVQL-ZCUBBSJVSA-N,-2.319
"3-pyridinecarboxamide, n-cyclohexyl-",,O=C(NC1CCCCC1)c2cccnc2,VQRIASKDLZXYTO-UHFFFAOYSA-N,-2.319
4-[3-(adamantan-1-yl)ureido]butanoic acid pentyl ester;  pentyl  4-[3'-(adamantan-1''-yl)ureido]butanoate,,CCCCCOC(=O)CCCNC(=O)N[C]12C[CH]3[CH2]C([CH2][CH](C3)C1)C2,NQJCTWSXXZBQGX-UHFFFAOYSA-N,-2.32