Name,ID,SMILES,inchi,LogS
iron(3+) ion tris(4-methylbenzene-1-sulfonate),,[Fe+3].Cc1ccc(cc1)[S]([O-])(=O)=O.Cc2ccc(cc2)[S]([O-])(=O)=O.Cc3ccc(cc3)[S]([O-])(=O)=O,FYMCOOOLDFPFPN-UHFFFAOYSA-K,-0.008033112
Cycloserine,CAS68-41-7,N[C@@H]1CONC1=O,DYDCUQKUCUHJBH-UWTATZPHSA-N,-0.01
"2(1h)-pyridinone, 5-iodo-1-methyl-",,CN1C=C(I)C=CC1=O,RTQZQBKEGAUQLR-UHFFFAOYSA-N,-0.0094
cycloserine;  4-aminoisoxazolidine-3-one,,NC1CONC1=O,DYDCUQKUCUHJBH-UHFFFAOYSA-N,-0.01
7-methylpteridine,,CC1=NC2=C(C=NC=N2)N=C1,KOCYTWBTXZOUFS-UHFFFAOYSA-N,-0.01
(3-dodecanamidopropyl)trimethylazanium methyl sulfate,,CCCCCCCCCCCC(=O)NCCC[N+](C)(C)C.CO[S]([O-])(=O)=O,LTERAWRIKDPXBF-UHFFFAOYSA-N,-0.011381165
chloroacetone,,CC(=O)CCl,BULLHNJGPPOUOX-UHFFFAOYSA-N,-0.012
"[1,2,4,5]tetrazino[1,2-a][1,2,4,5]tetrazine, oct",,C1NNCN2CNNCN12,RRIGVQQUVAETIG-UHFFFAOYSA-N,-0.0128
chloroacetamide,,NC(=O)CCl,VXIVSQZSERGHQP-UHFFFAOYSA-N,-0.0166
A mixture of RR and RS isomers of: (2-(2-methoxy-1-methyl)ethoxy)-1-methylethyl acetate; (2-(2-methoxy-2-methyl)ethoxy)-1-methylethyl acetate; (2-(2-methoxy-2-methyl)ethoxy)-2-methylethyl acetate; (2-(2-methoxy-1-methyl)ethoxy)-2-methylethyl acetate,,CCC(OCCCOC)OC(C)=O,USDXBNSCKZJDLC-UHFFFAOYSA-N,-0.016848465
ecgonine,,CN1C2CCC1[C@H]([C@@H](O)C2)C(O)=O,PHMBVCPLDPDESM-RLXKETGRSA-N,-0.0173
2-(propan-2-yloxy)ethan-1-ol,,CC(C)OCCO,HCGFUIQPSOCUHI-UHFFFAOYSA-N,-0.017655104
dilithium(1+) ion nonanedioate,,[Li+].[Li+].[O-]C(=O)CCCCCCCC([O-])=O,KCEQQLDYFGMIGU-UHFFFAOYSA-L,-0.017921985
methyl(triphenyl)phosphonium bromide,,[Br-].C[P+](c1ccccc1)(c2ccccc2)c3ccccc3,LSEFCHWGJNHZNT-UHFFFAOYSA-M,-0.018923033
disodium 4-[[(Z)-octadec-9-enyl]amino]-4-oxo-2-sulfonatobutanoate,,[Na+].[Na+].CCCCCCCC\C=C/CCCCCCCCNC(=O)CC(C([O-])=O)[S]([O-])(=O)=O,PLHAFYWVSVUQCQ-XXAVUKJNSA-L,-0.019515783
l-serine,,NC(CO)C(O)=O,MTCFGRXMJLQNBG-UHFFFAOYSA-N,-0.02
Ecgonine,,C1C(N2C)CC(O)C(C(=O)O)C2C1,PHMBVCPLDPDESM-UHFFFAOYSA-N,-0.02
allyl ether,,C=CCOCC=C,ATVJXMYDOSMEPO-UHFFFAOYSA-N,-0.0206
5-benzoyl-4-hydroxy-2-methoxybenzene-1-sulfonic acid,,[Na+].COc1cc(O)c(cc1[S]([O-])(=O)=O)C(=O)c2ccccc2,KJCLYACXIWMFCC-UHFFFAOYSA-M,-0.022384851
Terbutaline,CAS23031-25-6,CC(C)(C)NCC(O)c1cc(O)cc(O)c1,XWTYSIMOBUGWOL-UHFFFAOYSA-N,-0.02
ethyl acetate,,CCOC(C)=O,XEKOWRVHYACXOJ-UHFFFAOYSA-N,-0.025404461
glyphosine,,OC(=O)CN(C[P](O)(O)=O)C[P](O)(O)=O,OXHDYFKENBXUEM-UHFFFAOYSA-N,-0.0256
butoxycarboxim,,CNC(=O)O\N=C(/C)C(C)[S](C)(=O)=O,CTJBHIROCMPUKL-WEVVVXLNSA-N,-0.0267
tin(2+) ion dichloride,,[Cl-].[Cl-].[Sn++],AXZWODMDQAVCJE-UHFFFAOYSA-L,-0.027457269
"2,5-dimethylpyridine",,Cc1ccc(C)nc1,XWKFPIODWVPXLX-UHFFFAOYSA-N,-0.03
"2-[(2,2-dichloroacetyl)amino]-3-hydroxypropanoic acid",,O=C(NC(CO)C(=O)O)C(Cl)Cl,POBGWTZPKSVJFM-UHFFFAOYSA-N,-0.03
P-Aminosalicylic Acid (PAS),CAS65-49-6,Nc1ccc(C(=O)O)c(O)c1,WUBBRNOQWQTFEX-UHFFFAOYSA-N,-0.03
tetrahydropyran,,C1CCOCC1,DHXVGJBLRPWPCS-UHFFFAOYSA-N,-0.031
"1,4,7,10-tetrazacyclododecane",,C1CNCCNCCNCCN1,QBPPRVHXOZRESW-UHFFFAOYSA-N,-0.031020416
2-hydroxy-2-phenylacetic acid,,OC(C(O)=O)c1ccccc1,IWYDHOAUDWTVEP-UHFFFAOYSA-N,-0.032126941
calcium bis(phosphinate),,[Ca++].[O-]P=O.[O-]P=O,LITFOGPYONJRNO-UHFFFAOYSA-L,-0.032644921
sodium 4-ethenylbenzene-1-sulfonate,,[Na+].[O-][S](=O)(=O)c1ccc(C=C)cc1,XFTALRAZSCGSKN-UHFFFAOYSA-M,-0.033251081
"ethane-1,2-diyl bis(3-oxobutanoate)",,CC(=O)CC(=O)OCCOC(=O)CC(C)=O,SJCUPJATWUWGAV-UHFFFAOYSA-N,-0.0337559
Ruthenium(3+) heptaacetate,,[Ru+3].[Ru+3].[Ru+3].CC([O-])=O.CC([O-])=O.CC([O-])=O.CC([O-])=O.CC([O-])=O.CC([O-])=O.CC([O-])=O,YLYBKNICSPYRDA-UHFFFAOYSA-G,-0.03568317
dimethyl phosphonate,,CO[P+](=O)OC,YLFBFPXKTIQSSY-UHFFFAOYSA-N,-0.037589826
"propanediamide, 2-(hydroxyimino)-",,NC(=O)C(=NO)C(N)=O,NIGAUKVBFJZEHV-UHFFFAOYSA-N,-0.0384
phenol,,OC1=CC=CC=C1,ISWSIDIOOBJBQZ-UHFFFAOYSA-N,-0.04
sodium 3-[(2-carboxyethyl)(dodecyl)amino]propanoate,,[Na+].CCCCCCCCCCCCN(CCC(O)=O)CCC([O-])=O,LLKGTXLYJMUQJX-UHFFFAOYSA-M,-0.040729633
methyl methanesulfonate,,CO[S](C)(=O)=O,MBABOKRGFJTBAE-UHFFFAOYSA-N,-0.041921413
1-hydroxypropan-2-yl 2-methylprop-2-enoate 2-hydroxypropyl 2-methylprop-2-enoate,,CC(CO)OC(=O)C(C)=C,ZMARGGQEAJXRFP-UHFFFAOYSA-N,-0.044931546
6-quinolinecarboxylic acid,,OC(=O)c1ccc2ncccc2c1,VXGYRCVTBHVXMZ-UHFFFAOYSA-N,-0.0456
potassium vanadium trioxide,,[K+].[O-][V](=O)=O,BQFYGYJPBUKISI-UHFFFAOYSA-N,-0.046573827
dilithium(1+) ion decanedioate,,[Li+].[Li+].[O-]C(=O)CCCCCCCCC([O-])=O,QFFPUGXEOWMNCP-UHFFFAOYSA-L,-0.047347893
"2-[5-[(4-hydroxyphenyl)methyl]-3-methyl-2,4-dioxoimidazolidin-1-yl]acetic acid",,CN1C(=O)C(CC2=CC=C(O)C=C2)N(CC(=O)O)C1=O,UBWHIRFNXZLVKF-UHFFFAOYSA-N,-0.05
tris(2-hydroxyethanaminium) citrate,,[NH3+]CCO.[NH3+]CCO.[NH3+]CCO.OC(CC([O-])=O)(CC([O-])=O)C([O-])=O,USDOPHAAWSJWLS-UHFFFAOYSA-N,-0.050160116
butan-1-ol,,CCCCO,LRHPLDYGYMQRHN-UHFFFAOYSA-N,-0.050409053
sodium 3-nitrobenzene-1-sulfonate,,[Na+].[O-][N+](=O)c1cccc(c1)[S]([O-])(=O)=O,LJRGBERXYNQPJI-UHFFFAOYSA-M,-0.051455458
diisopropyl methylphosphonate,,CC(C)O[P](C)(=O)OC(C)C,WOAFDHWYKSOANX-UHFFFAOYSA-N,-0.0516
4-aminopyridine,,Nc1ccncc1,NUKYPUAOHBNCPY-UHFFFAOYSA-N,-0.0529
".beta.-alanine, n-methyl-",,CNCCC(O)=O,VDIPNVCWMXZNFY-UHFFFAOYSA-N,-0.0543
barium formate,,[Ba++].[O-]C=O.[O-]C=O,UXFOSWFWQAUFFZ-UHFFFAOYSA-L,-0.0557
methyl isopropyl ether,,COC(C)C,RMGHERXMTMUMMV-UHFFFAOYSA-N,-0.057
cyclohexanone,,O=C1CCCCC1,JHIVVAPYMSGYDF-UHFFFAOYSA-N,-0.057369728
"galatitol, 2,3:4,5-dianhydro-1,6-dideoxy-",,CC1OC1C2OC2C,SINVKWSLMGHBSX-UHFFFAOYSA-N,-0.0575
tin(4+) disulfate,,[Sn++].[O-][S]([O-])(=O)=O,OBBXFSIWZVFYJR-UHFFFAOYSA-L,-0.057823856
5-Ethylhydantoin,,CCC1NC(=O)NC1(=O),RSBRXBZGVHQUJK-UHFFFAOYSA-N,-0.06
N-Dichloracetyl-DL-serin-methylester,,COC(=O)C(CO)NC(=O)C(Cl)Cl,JYLWMEXEAXNUEF-UHFFFAOYSA-N,-0.06
"2,4-des",,O[S](=O)(=O)OCCOc1ccc(Cl)cc1Cl,HJEINPVZRDJRBY-UHFFFAOYSA-N,-0.0601
Sodium trimetaphosphate,,[Na+].[Na+].[Na+].[O-][P]1(=O)O[P]([O-])(=O)O[P]([O-])(=O)O1,UGTZMIPZNRIWHX-UHFFFAOYSA-K,-0.062309467
"1,3-dioxolane, 2-(1-methylethyl)-",,CC(C)C1OCCO1,SMYRHRFGKYUCFB-UHFFFAOYSA-N,-0.0651
"2-furanol, 5-ethyltetrahydro-",,CCC1CCC(O)O1,VPPOYUGGWUIGDG-UHFFFAOYSA-N,-0.0651
"2,6-dimethyl-n-nitrosomorpholine",,CC1CN(CC(C)O1)N=O,DPYMAXOKJUBANR-UHFFFAOYSA-N,-0.0655
3-hydroxy-5-methylisoxazole,,CC1=CC(=O)NO1,KGVPNLBXJKTABS-UHFFFAOYSA-N,-0.0666
2-methylprop-2-enal,,CC(=C)C=O,STNJBCKSHOAVAJ-UHFFFAOYSA-N,-0.067511006
norvaline,,CCC[C@@H](N)C(O)=O,SNDPXSYFESPGGJ-SCSAIBSYSA-N,-0.0687
cartap,,CN(C)C(CSC(N)=O)CSC(N)=O,IRUJZVNXZWPBMU-UHFFFAOYSA-N,-0.07
"5,5-diethyl-4,6-dioxo-1H-pyrimidin-2-olate",,CCC1(C(=O)NC(=NC1=O)[O-])CC,FTOAOBMCPZCFFF-UHFFFAOYSA-M,-0.07
1-[(1-propoxypropan-2-yl)oxy]propan-2-ol,,CCCOCC(C)OCC(C)O,WEZPLQKRXDBPEP-UHFFFAOYSA-N,-0.070052651
"propanoic acid, 3-ethoxy-, methyl ester",,CCOCCC(=O)OC,HSDFKDZBJMDHFF-UHFFFAOYSA-N,-0.0719
paraldehyde,,CC1OC(C)OC(C)O1,SQYNKIJPMDEDEG-UHFFFAOYSA-N,-0.0719
"N,N,N-triethylethanaminium 1,1,2,2,3,3,4,4,5,5,6,6,7,7,8,8,8-heptadecafluorooctane-1-sulfonate",,CC[N+](CC)(CC)CC.[O-][S](=O)(=O)C(F)(F)C(F)(F)C(F)(F)C(F)(F)C(F)(F)C(F)(F)C(F)(F)C(F)(F)F,JHDXAQHGAJXNBY-UHFFFAOYSA-M,-0.072180899
"ethane, 1-chloro-2-methoxy-",,COCCCl,XTIGGAHUZJWQMD-UHFFFAOYSA-N,-0.0725
3-methoxy-3-methylbutan-1-ol,,COC(C)(C)CCO,MFKRHJVUCZRDTF-UHFFFAOYSA-N,-0.072529286
acetoacetic ester,,CCOC(=O)CC(C)=O,XYIBRDXRRQCHLP-UHFFFAOYSA-N,-0.073
n-(ethylaminomethyl)benzamide,,CCNCNC(=O)c1ccccc1,MUDXIWKFOCILIO-UHFFFAOYSA-N,-0.0749
Ketamine,CAS1867-66-9,CNC1(c2ccccc2Cl)CCCCC1=O.Cl,VCMGMSHEPQENPE-UHFFFAOYSA-N,-0.08
"1,4-dimethyl butanedioate",,COC(=O)CCC(=O)OC,MUXOBHXGJLMRAB-UHFFFAOYSA-N,-0.075223164
2-hydroxy-4-(methylsulfanyl)butanenitrile,,CSCCC(O)C#N,VWWOJJANXYSACS-UHFFFAOYSA-N,-0.07654115
2-(cyclohexylamino)ethane-1-sulfonic acid,,[Na+].[O-][S](=O)(=O)CCNC1CCCCC1,TXWKJOVDGFRVOG-UHFFFAOYSA-M,-0.078418557
bis(prop-2-en-1-yl)amine,,C=CCNCC=C,DYUWTXWIYMHBQS-UHFFFAOYSA-N,-0.079006957
noxythiolin,,CN[S]#CNCO,BBJPKBLYPSYKMT-UHFFFAOYSA-N,-0.0798
Sulfolane,,O=[S]1(=O)CCCC1,HXJUTPCZVOIRIF-UHFFFAOYSA-N,-0.079806903
2-methylpropanal,,CC(C)C=O,AMIMRNSIRUDHCM-UHFFFAOYSA-N,-0.079826177
ethyl methyl ether,,CCOC,XOBKSJJDNFUZPF-UHFFFAOYSA-N,-0.0799
"2,6-diaminopyridine",,NC1=NC(=CC=C1)N,VHNQIURBCCNWDN-UHFFFAOYSA-N,-0.08
manganese(2+) ion diphosphinate,,[Mn++].[O-]P=O.[O-]P=O,FLFJVPPJGJSHMF-UHFFFAOYSA-L,-0.081304092
chipcote,,C[Hg]C#N,DHKAICYEDDOCRO-UHFFFAOYSA-N,-0.0821
"tetrasodium 5-({4-[bis(2-hydroxypropyl)amino]-6-[(4-sulfonatophenyl)amino]-1,3,5-triazin-2-yl}amino)-2-[(E)-2-[4-({4-[bis(2-hydroxypropyl)amino]-6-[(4-sulfonatophenyl)amino]-1,3,5-triazin-2-yl}amino)-2-sulfonatophenyl]ethenyl]benzene-1-sulfonate",,[Na+].[Na+].[Na+].[Na+].CC(O)CN(CC(C)O)c1nc(Nc2ccc(cc2)[S]([O-])(=O)=O)nc(Nc3ccc(/C=C/c4ccc(Nc5nc(Nc6ccc(cc6)[S]([O-])(=O)=O)nc(n5)N(CC(C)O)CC(C)O)cc4[S]([O-])(=O)=O)c(c3)[S]([O-])(=O)=O)n1,NTHKAJBKFNFLHL-WPYDVODASA-J,-0.086773993
"1,2-oxathiolane 2,2-dioxide",,O=[S]1(=O)CCCO1,FSSPGSAQUIYDCN-UHFFFAOYSA-N,-0.086875694
[(bis{6-[bis(phosphonomethyl)amino]hexyl}amino)methyl]phosphonic acid,,O[P](O)(=O)CN(CCCCCCN(C[P](O)(O)=O)C[P](O)(O)=O)CCCCCCN(C[P](O)(O)=O)C[P](O)(O)=O,YWMWZKYVGNWJPU-UHFFFAOYSA-N,-0.087765578
diethyl ether,,CCOCC,RTZKZFJDLAIYFH-UHFFFAOYSA-N,-0.0889
"4-[4-[[2,5-dimethoxy-4-[[2-(sulphooxy)ethyl]sulphonyl]phenyl]azo]-4,5-dihydro-3-methyl-5-oxo-1H-pyrazol-1-yl]benzenesulphonic acid, sodium salt",,[Na+].[Na+].COc1cc(c(OC)cc1N=NC2C(=NN(C2=O)c3ccc(cc3)[S]([O-])(=O)=O)C)[S](=O)(=O)CCO[S]([O-])(=O)=O,JDPMQBDNRSLOKS-UHFFFAOYSA-L,-0.089843034
7-dimethylaminopteridine,,CN(C)C1=NC2=C(C=NC=N2)N=C1,MPTKEBUBIGZGJH-UHFFFAOYSA-N,-0.09
Chloroacetonitrile,,ClCC#N,RENMDAKOXSCIGH-UHFFFAOYSA-N,-0.092
"potassium [[N,N'-ethylenebis[N-(carboxymethyl)glycinato]](4-)-N,N',O,O',ON,ON']ferrate(1-)",,[K+].[Fe+3].[O-]C(=O)CN(CCN(CC([O-])=O)CC([O-])=O)CC([O-])=O,ZXSCVYQKZLXHBR-UHFFFAOYSA-J,-0.092012803
dimethyl methylphosphonate,,CO[P](C)(=O)OC,VONWDASPFIQPDY-UHFFFAOYSA-N,-0.093687784
"2,2-dimethyloxirane",,CC1(C)CO1,GELKGHVAFRCJNA-UHFFFAOYSA-N,-0.094549434
(6-aminohexyl)carbamic acid,,NCCCCCCNC(O)=O,HDIHOAXFFROQHR-UHFFFAOYSA-N,-0.095298805
fufural,,O=Cc1occc1,HYBBIBNJHNGZAN-UHFFFAOYSA-N,-0.0962
"Benzenesulfonic acid, mono-C11-13-branched alkyl derivs., sodium salts",,[Na+].CCCCC(CC)CCCCCc1ccc(cc1)[S]([O-])(=O)=O,HLZPFMSGWIVXAK-UHFFFAOYSA-M,-0.096905651
sodium [methyl(oleoyl)amino]acetate,,[Na+].CCCCCCCC/C=C/CCCCCCCC(=O)N(C)CC([O-])=O,VLKIFCBXANYYCK-ASTDGNLGSA-M,-0.097522226
boric acid,,OB(O)O,KGBXLFKZBHKPEV-UHFFFAOYSA-N,-0.099255215
"ethanesulfinothioic acid, s-ethyl ester",,CCS[S](=O)CC,FIWQKOIUXFENIV-UHFFFAOYSA-N,-0.0993
myo-inositol,,OC1C(O)C(O)C(O)C(O)C1O,CDAISMWEOUEBRE-UHFFFAOYSA-N,-0.1
Methicillin,CAS61-32-5,COc1cccc(OC)c1C(=O)N[C@@H]1C(=O)N2[C@@H](C(=O)O)C(C)(C)S[C@H]12,RJQXTJLFIWVMTO-TYNCELHUSA-N,-0.1
mercuric acetate,,[Hg++].CC([O-])=O.CC([O-])=O,BRMYZIKAHFEUFJ-UHFFFAOYSA-L,-0.1054
Ketorolac,CAS74103-06-3,[2H]c1c([2H])c([2H])c(C(=O)c2ccc3n2CCC3C(=O)O)c([2H])c1[2H],OZWKMVRBQXNZKK-RALIUCGRSA-N,-0.11
sodium 2-hydroxybenzoate,,[Na+].Oc1ccccc1C([O-])=O,ABBQHOQBGMUPJH-UHFFFAOYSA-M,-0.107492169
L-histidine monohydrochloride,,[Cl-].N[C@@H](Cc1[nH]cnc1)C(O)=O.[H+],QZNNVYOVQUKYSC-JEDNCBNOSA-N,-0.107649886
nabam,,[Na+].[Na+].[S-]C(=S)NCCNC([S-])=S,UQJQVUOTMVCFHX-UHFFFAOYSA-L,-0.1078
"1,6-dioxaspiro[4,4]nonane",,C1COC2(C1)CCCO2,YVSCOIUNVKGTND-UHFFFAOYSA-N,-0.1078
"2,2,4-pentanetricarboxylic acid",,CC(CC(C)(C(O)=O)C(O)=O)C(O)=O,GKJYHTGGXDEYSU-UHFFFAOYSA-N,-0.1086
Famciclovir,CAS104227-87-4,CC(=O)OCC(CCn1cnc2cnc(N)nc21)COC(C)=O,GGXKWVWZWMLJEH-UHFFFAOYSA-N,-0.11
dl-norvaline;  dl-2-aminopentanoic  acid,,CCCC(N)C(O)=O,SNDPXSYFESPGGJ-UHFFFAOYSA-N,-0.11
2-[[2-[(2-aminoacetyl)amino]acetyl]amino]-4-methylpentanoic acid,,CC(C)CC(NC(=O)CNC(=O)CN)C(=O)O,XPJBQTCXPJNIFE-UHFFFAOYSA-N,-0.11
2-(piperazin-1-yl)ethan-1-amine,,NCCN1CCNCC1,IMUDHTPIFIBORV-UHFFFAOYSA-N,-0.111286043
aluminium trititanium dodecachloride,,[Al+3].[Cl-].[Cl-].[Cl-].[Cl-].[Cl-].[Cl-].[Cl-].[Ti+4],ZMKAVICCBWPNSR-UHFFFAOYSA-G,-0.111289404
"4,5-bis(hydroxymethyl)-2-methylpyridin-3-ol hydrochloride",,[H+].[Cl-].Cc1ncc(CO)c(CO)c1O,ZUFQODAHGAHPFQ-UHFFFAOYSA-N,-0.111712583
"ethanediamide, n,n'-bis(2-hydroxyethyl)-",,OCCNC(=O)C(=O)NCCO,FPQJEXTVQZHURJ-UHFFFAOYSA-N,-0.1124
"disodium 3-{[ethyl({4-[(4-{ethyl[(3-sulfonatophenyl)methyl]iminiumyl}cyclohexa-2,5-dien-1-ylidene)(2-sulfonatophenyl)methyl]phenyl})amino]methyl}benzene-1-sulfonate",,[Na+].[Na+].CCN(Cc1cccc(c1)[S]([O-])(=O)=O)c2ccc(cc2)[C+](c3ccc(cc3)N(CC)Cc4cccc(c4)[S]([O-])(=O)=O)c5ccccc5[S]([O-])(=O)=O,SGHZXLIDFTYFHQ-UHFFFAOYSA-L,-0.113158037
2-hydroxyethyl 2-methylprop-2-enoate,,CC(=C)C(=O)OCCO,WOBHKFSMXKNTIM-UHFFFAOYSA-N,-0.114420814
"1,3-dichloro-2-propanol",,OC(CCl)CCl,DEWLEGDTCGBNGU-UHFFFAOYSA-N,-0.115
"cyclopropane, methoxy-",,COC1CC1,ZUVAACFIEPYYOP-UHFFFAOYSA-N,-0.1176
"pteridine, 2-methyl-",,Cc1ncc2nccnc2n1,BIGRRCHSUAXSEE-UHFFFAOYSA-N,-0.1191
"propanedioic acid, dihydrazide",,NNC(=O)CC(=O)NN,PSIKPHJLTVSQFO-UHFFFAOYSA-N,-0.121
3-[(2-hydroxyethyl)amino]propanamide,,NC(=O)CCNCCO,WRLAXUYIDLSRHV-UHFFFAOYSA-N,-0.121109888
potassium (Z)-N-methyl-N-(1-oxo-9-octadecenyl)aminoacetate,,[K+].CCCCCCCC\C=C/CCCCCCCC(=O)N(C)CC([O-])=O,XNDDBWAGMIMDPB-GMFCBQQYSA-M,-0.121592004
Levalbuterol,CAS34391-04-3,CC(C)(C)NC[C@H](O)c1ccc(O)c(CO)c1,NDAUXUAQIAJITI-LBPRGKRZSA-N,-0.12
2-[2-(dimethylamino)ethoxy]ethan-1-ol,,CN(C)CCOCCO,YSAANLSYLSUVHB-UHFFFAOYSA-N,-0.12447488
"ethane, 1,1'-[oxybis(methyleneoxy)]bis-",,CCOCOCOCC,ANPYLYUCGAFKNQ-UHFFFAOYSA-N,-0.1277
pencillamine,,CC(C)(S)[C@@H](N)C(O)=O,VVNCNSJFMMFHPL-VKHMYHEASA-N,-0.1285
"d-xylose, (aminocarbonyl)hydrazone",,NC(=O)NN=C[C@H](O)[C@@H](O)[C@H](O)CO,HJUOUZOJKPIETD-VPENINKCSA-N,-0.1288
3-methylbut-2-en-1-ol,,CC(C)=CCO,ASUAYTHWZCLXAN-UHFFFAOYSA-N,-0.128994642
penicillamine;  2-amino-3-mercapto-3-methylbutanoic acid,,CC(C)(S)C(N)C(O)=O,VVNCNSJFMMFHPL-UHFFFAOYSA-N,-0.13
o-propylcarbamate,,CCCOC(N)=O,YNTOKMNHRPSGFU-UHFFFAOYSA-N,-0.1302
hexanedinitrile,,N#CCCCCC#N,BTGRAWJCKBQKAO-UHFFFAOYSA-N,-0.130912442
"sodium (2R)-2-[(1R)-1,2-dihydroxyethyl]-4-hydroxy-5-oxo-2,5-dihydrofuran-3-olate",,[Na+].O[C@H](C[O-])[C@H]1OC(=C(O)C1=O)O,QNSCGSPRKIPKTN-RKJRWTFHSA-N,-0.132544773
Captopril,CAS62571-86-2,C[C@H](CS)C(=O)N1CCC[C@H]1C(=O)O,FAKRSMQSSFJEIM-RQJHMYQMSA-N,-0.13
sodium nonyl sulfate,,[Na+].CCCCCCCCCO[S]([O-])(=O)=O,FTWCSAMTIKSPAT-UHFFFAOYSA-M,-0.13619896
cartap hydrochloride,,[Cl-].C[NH+](C)C(CSC(N)=O)CSC(N)=O,MSHXTAQSSIEBQS-UHFFFAOYSA-N,-0.1364
"3-pyridinecarboxylic acid, hydrazide",,NNC(=O)c1cccnc1,KFUSANSHCADHNJ-UHFFFAOYSA-N,-0.1372
triethylamine,,CCN(CC)CC,ZMANZCXQSJIPKH-UHFFFAOYSA-N,-0.137682984
Cyclobenzaprine,CAS303-53-7,CN(C)CCC=C1c2ccccc2C=Cc2ccccc21.Cl,VXEAYBOGHINOKW-UHFFFAOYSA-N,-0.14
tris[4-(diethylamino)phenyl]methylium acetate,,CCN(CC)c1ccc(cc1)[C+](c2ccc(cc2)N(CC)CC)c3ccc(cc3)N(CC)CC.CC([O-])=O,CBMNJIRTNNMVJC-UHFFFAOYSA-M,-0.139560898
cefamandole,,C[N]1N=NN=C1SCC2=C(N3C(SC2)C(NC(=O)C(O)C4=CC=CC=C4)C3=O)C(O)=O,OLVCFLKTBJRLHI-UHFFFAOYSA-N,-0.14
hydroxy(phenyl)acetic acid,,O[C@@H](C(O)=O)c1ccccc1,IWYDHOAUDWTVEP-SSDOTTSWSA-N,-0.141666762
Ceftriaxone,CAS73384-59-5,CO/N=C(\C(=O)N[C@@H]1C(=O)N2C(C(=O)O)=C(CSc3nc(=O)c(=O)[nH]n3C)CS[C@H]12)c1csc(N)n1,VAAUVRVFOQPIGI-SPQHTLEESA-N,-0.14
Cefamandole,CAS34444-01-4,Cn1nnnc1SCC1=C(C(=O)O)N2C(=O)[C@@H](NC(=O)[C@H](O)c3ccccc3)[C@H]2SC1,OLVCFLKTBJRLHI-AXAPSJFSSA-N,-0.14
"ethyl (2-methyl-1,3-dioxolan-2-yl)acetate",,CCOC(=O)CC1(C)OCCO1,XWEOGMYZFCHQNT-UHFFFAOYSA-N,-0.144823593
"2,2'-diazene-1,2-diylbis(2-methylpropanimidamide) dihydrochloride",,[H+].[Cl-].CC(C)(N=NC(C)(C)C(N)=N)C(N)=N,QMYCJCOPYOPWTI-UHFFFAOYSA-N,-0.145139333
2-(chloromethyl)oxirane,,ClCC1CO1,BRLQWZUYTZBJKN-UHFFFAOYSA-N,-0.147373679
methyl propionate,,CCC(=O)OC,RJUFJBKOKNCXHH-UHFFFAOYSA-N,-0.1498
creatinine,,CN1CC(=O)N=C1N,DDRJAANPRJIHGJ-UHFFFAOYSA-N,-0.1499
Pravastatin,CAS81093-37-0,CC[C@H](C)C(=O)O[C@H]1C[C@H](O)C=C2C=C[C@H](C)[C@H](CC[C@@H](O)C[C@@H](O)CC(=O)[O-])[C@H]21.[Na+],VWBQYTRBTXKKOG-IYNICTALSA-M,-0.15
3-methyl-2-butanone,,CC(C)C(C)=O,SYBYTAAJFKOIEJ-UHFFFAOYSA-N,-0.1513
"3,6-dimethylpiperazine-2,5-dione",,C[C@@H]1NC(=O)[C@@H](C)NC1=O,WWISPHBAYBECQZ-ZXZARUISSA-N,-0.1528
"3,4,5-trifluorophenol",,Oc1cc(F)c(F)c(F)c1,ZRTWIJKGTUGZJY-UHFFFAOYSA-N,-0.153609692
"1-propanol, 2,3-dimercapto-",,OCC(S)CS,WQABCVAJNWAXTE-UHFFFAOYSA-N,-0.1547
"1h-purine-2,6-dione, 3,7-dihydro-7-(3-hydroxypro",,CN1C(=O)N(C)c2ncn(CCCO)c2C1=O,QCGRMMZPZDAITA-UHFFFAOYSA-N,-0.1551
"butanal, 3-ethoxy-2-oxo-",,CCOC(C)C(=O)C=O,VUNAKDMJSGEODG-UHFFFAOYSA-N,-0.1554
butyraldehyde,,CCCC=O,ZTQSAGDEMFDKMZ-UHFFFAOYSA-N,-0.159007423
Pentoxifylline,CAS6493-05-6,CC(=O)CCCCn1c(=O)c2c(ncn2C)n(C)c1=O,BYPFEZZEUUWMEJ-UHFFFAOYSA-N,-0.16
"4h-imidazol-4-one, 2-amino-1-ethyl-1,5-dihydro-",,CCN1CC(=O)N=C1N,LCDGAYYHFKVEAR-UHFFFAOYSA-N,-0.165
"1-propanol, 2,2-bis(ethylsulfonyl)-",,CC[S](=O)(=O)C(C)(CO)[S](=O)(=O)CC,MKNPCLDRRSFQTC-UHFFFAOYSA-N,-0.1653
2-isopropoxyethyl acetate,,CC(C)OCCOC(C)=O,HCDJVEYJSSTYSW-UHFFFAOYSA-N,-0.165775242
butyric acid,,CCCC(O)=O,FERIUCNNQQJTOY-UHFFFAOYSA-N,-0.1669
"propanedioic acid, 2,2-dimethyl-",,CC(C)(C(O)=O)C(O)=O,OREAFAJWWJHCOT-UHFFFAOYSA-N,-0.167
succinic  acid;  butanedioic acid,,OC(=O)CCC(O)=O,KDYFGRWQOYBRFD-UHFFFAOYSA-N,-0.17
d-quercitol;  pentahydroxycyclohexane,,OC1CC(O)C(O)C(O)C1O,IMPKVMRTXBRHRB-UHFFFAOYSA-N,-0.17
Dyphylline,,O=C(N(C(=O)C(N(C=N1)CC(O)CO)=C12)C)N2C,KSCFJBIXMNOVSH-UHFFFAOYSA-N,-0.17
2-(bis(2-cyanoethyl)amino)propanoic acid,,CC(C(=O)O)N(CCC#N)CCC#N,LLIQJKREYJVRFV-UHFFFAOYSA-N,-0.17
2-[(2-amino-4-methylpentanoyl)amino]-3-methylbutanoic acid,,CC(C)CC(N)C(=O)NC(C(=O)O)C(C)C,MDSUKZSLOATHMH-UHFFFAOYSA-N,-0.17
"2-butanone, 3-ethoxy-1,1-dihydroxy-; or kethoxal",,CCOC(C)C(=O)C(O)O,YRCRRHNVYVFNTM-UHFFFAOYSA-N,-0.1707
"acetic acid, tribromo-",,[O-]C(=O)C(Br)(Br)Br,QIONYIKHPASLHO-UHFFFAOYSA-M,-0.1713
diethoxymethane,,CCOCOCC,KLKFAASOGCDTDT-UHFFFAOYSA-N,-0.1726
Penciclovir,CAS39809-25-1,Nc1nc2c(ncn2CCC(CO)CO)c(=O)[nH]1,JNTOCHDNEULJHD-UHFFFAOYSA-N,-0.17
pyrrole,,[nH]1cccc1,KAESVJOAVNADME-UHFFFAOYSA-N,-0.1734
n-nitrosopiperidine,,O=NN1CCCCC1,UWSDONTXWQOZFN-UHFFFAOYSA-N,-0.1738
d-quercitol,,O[C@@H]1C[C@@H](O)[C@H](O)C(O)[C@H]1O,IMPKVMRTXBRHRB-MBMOQRBOSA-N,-0.1739
fluoromethane,,CF,NBVXSUQYWXRMNV-UHFFFAOYSA-N,-0.175874376
"pentane-2,3-dione",,CCC(=O)C(C)=O,TZMFJUDUGYTVRY-UHFFFAOYSA-N,-0.1764
4-penten-1-ol,,OCCCC=C,LQAVWYMTUMSFBE-UHFFFAOYSA-N,-0.1793
"1,3-disiloxanediol, 1,1,3,3-tetramethyl-",,C[Si](C)(O)O[Si](C)(C)O,PFEAZKFNWPIFCV-UHFFFAOYSA-N,-0.1796
cupric gluconate,,[Cu++].OC[C@@H](O)[C@@H](O)[C@H](O)[C@@H](O)C([O-])=O.OC[C@@H](O)[C@@H](O)[C@H](O)[C@@H](O)C([O-])=O,OCUCCJIRFHNWBP-IYEMJOQQSA-L,-0.1798
"butane-1,2,3,4-tetracarboxylic  acid",,OC(=O)CC(C(CC(O)=O)C(O)=O)C(O)=O,GGAUUQHSCNMCAU-UHFFFAOYSA-N,-0.18
"6,7-diethylpteridine",,CCC1=NC2=C(N=CN=C2)N=C1CC,ULZKCUXGSDTDQB-UHFFFAOYSA-N,-0.18
3-Methyl-2-butanol,,CC(C)C(C)O,MXLMTQWGSQIYOW-UHFFFAOYSA-N,-0.18
2-(2-ethoxyethoxy)ethyl prop-2-enoate,,CCOCCOCCOC(=O)C=C,FTALTLPZDVFJSS-UHFFFAOYSA-N,-0.181251006
"2-propanol, 1,3-dichloro-2-methyl-",,CC(O)(CCl)CCl,UZHWBXUQTDSMGJ-UHFFFAOYSA-N,-0.1822
4-(vinyloxy)butan-1-ol,,OCCCCOC=C,HMBNQNDUEFFFNZ-UHFFFAOYSA-N,-0.18999534
2-pentanone,,O=C(CCC)C,XNLICIUVMPYHGG-UHFFFAOYSA-N,-0.19
nitrogen,,N#N,IJGRMHOSHXDMSA-UHFFFAOYSA-N,-0.1901
taurine,,NCC[S](O)(=O)=O,XOAAWQZATWQOTB-UHFFFAOYSA-N,-0.1906
[(4-sulfamoylphenyl)amino]azanium chloride,,[H+].[Cl-].NNc1ccc(cc1)[S](N)(=O)=O,IKEURONJLPUALY-UHFFFAOYSA-N,-0.19127437
tetrasodium phosphonato phosphate,,[Na+].[Na+].[Na+].[Na+].[O-][P]([O-])(=O)O[P]([O-])([O-])=O,FQENQNTWSFEDLI-UHFFFAOYSA-J,-0.194271049
(2S)-5-amino-2-[(2-aminoacetyl)amino]-5-oxopentanoic acid,,NC(=O)CC[C@H](NC(=O)C[NH3+])C([O-])=O,PNMUAGGSDZXTHX-BYPYZUCNSA-N,-0.194310278
"2,2,6,6-tetramethylpiperidin-4-ol",,CC1(C)CC(O)CC(C)(C)N1,VDVUCLWJZJHFAV-UHFFFAOYSA-N,-0.196609986
"benzene-1,4-diol",,Oc1ccc(O)cc1,QIGBRXMKCJKVMJ-UHFFFAOYSA-N,-0.196736611
2-methylprop-2-enoyl 2-methylprop-2-enoate,,CC(=C)C(=O)OC(=O)C(C)=C,DCUFMVPCXCSVNP-UHFFFAOYSA-N,-0.196759712
dl-valine,,CC(C)C(N)C(O)=O,KZSNJWFQEVHDMF-UHFFFAOYSA-N,-0.1971
biocozamycin,,CC(O)(CO)C(O)[C@@]12NC(=O)[C@@](O)(NC1=O)C(=C)CCO2,WOUDXEYYJPOSNE-CJYLUKGNSA-N,-0.1971