Name,ID,SMILES,inchi,LogS
(5-ethynyl-1-azabicyclo[2.2.2]octan-7-yl)-(6-methoxyquinolin-4-yl)methanol,,C#CC1CN2CCC1CC2C(O)C1=CC=NC2=C1C=C(OC)C=C2,NEVQIVQOUXGAJH-UHFFFAOYSA-N,-2.12
3-Fluoro-9-acridinamine,,NC1=C2C=CC(F)=CC2=NC2=C1C=CC=C2,LJCVIUWHTJVXLG-UHFFFAOYSA-N,-2.12
"5-ethenyl-5-(2-methylpropyl)-1,3-diazinane-2,4,6-trione",,C=CC1(CC(C)C)C(=O)NC(=O)NC1=O,QCIGGTDJLCAYJE-UHFFFAOYSA-N,-2.12
"5-(hydroxymethyl)-2-(trichloromethyl)-3~{a},5,6,6~{a}-tetrahydrofuro[2,3-d][1,3]dioxol-6-ol",,OCC1OC2OC(C(Cl)(Cl)Cl)OC2C1O,MWVWYISMEDQTPL-UHFFFAOYSA-N,-2.12
6-hydroxy-2-(2-methylpropyl)-5-(phenylmethyl)morpholin-3-one,,CC(C)CC1OC(O)C(CC2=CC=CC=C2)NC1=O,LQLIEICEYDIWLO-UHFFFAOYSA-N,-2.12
adenine,PubChemCID92180,CC(=CCNC1=NC=NC2=C1NC=N2)C,HYVABZIGRDEKCD-UHFFFAOYSA-N,-2.12
thiophenol,,Sc1ccccc1,RMVRSNDYEFQCLF-UHFFFAOYSA-N,-2.1204
diphenylmethyl phosphate,,CO[P](=O)(Oc1ccccc1)Oc2ccccc2,VOWPVJACXJNHBC-UHFFFAOYSA-N,-2.1209
"2,4-dibromophenol",,Oc1ccc(Br)cc1Br,FAXWFCTVSHEODL-UHFFFAOYSA-N,-2.1225
"2,4,7,9-tetramethyldec-5-yne-4,7-diol",,CC(C)CC(C)(O)C#CC(C)(O)CC(C)C,LXOFYPKXCSULTL-UHFFFAOYSA-N,-2.124350764
"ethanol, 2-(octyloxy)-",,CCCCCCCCOCCO,ZQCIMPBZCZUDJM-UHFFFAOYSA-N,-2.125
"2-phenyl-4,5-dihydro-1H-imidazole; benzene-1,2,4,5-tetracarboxylic acid",,OC(=O)c1cc(C(O)=O)c(cc1C(O)=O)C(O)=O.C2CN=C(N2)c3ccccc3,TZBVXASHYYFGHZ-UHFFFAOYSA-N,-2.125310985
"2,5-pyridinedicarboxylic acid",,OC(=O)c1ccc(nc1)C(O)=O,LVPMIMZXDYBCDF-UHFFFAOYSA-N,-2.1296
2-acetylaminophenol;  2-hydroxyacetanilide,,CC(=O)NC1=C(O)C=CC=C1,ADVGKWPZRIDURE-UHFFFAOYSA-N,-2.13
1-ethylcarbamoyl-5-fluorouracil;  1-ethylaminocarbonyl-5-fluorouracil,,CCNC(=O)N1C=C(F)C(=O)NC1=O,HQNJZCSCNOSIGA-UHFFFAOYSA-N,-2.13
"2-sulfamoyl-5-(4-bromobenzenesulfonamido)-1,3,4-thiadiazole",,N[S](=O)(=O)C1=NN=C(N[S](=O)(=O)C2=CC=C(Br)C=C2)S1,QGHSHYIQOYQWHW-UHFFFAOYSA-N,-2.13
2-[[2-[2-[(2-aminoacetyl)amino]propanoylamino]-4-methylpentanoyl]amino]-3-methylbutanoic acid,,CC(C)CC(NC(=O)C(C)NC(=O)CN)C(=O)NC(C(=O)O)C(C)C,PAPARZBEAJESED-UHFFFAOYSA-N,-2.13
Asenapine,,CN1CC2C3=C(C=CC=C3)OC3=C(C=C(Cl)C=C3)C2C1,VSWBSWWIRNCQIJ-UHFFFAOYSA-N,-2.13
[1-[(6-chloropyridin-3-yl)methyl]-3-methylimidazolidin-2-ylidene]cyanamide,,CN1CCN(CC2=CN=C(Cl)C=C2)C1=NC#N,FAAKQHWYELHYCG-UHFFFAOYSA-N,-2.13
"2,3-dichloroaniline",,Nc1cccc(Cl)c1Cl,BRPSAOUFIJSKOT-UHFFFAOYSA-N,-2.130384701
(E)-N-(5-methylheptan-3-ylidene)hydroxylamine,,CCC(C)C\C(CC)=N\O,CBVWMGCJNPPAAR-CMDGGOBGSA-N,-2.130728127
ethyl benzenesulfonate,,CCO[S](=O)(=O)c1ccccc1,XDRMBCMMABGNMM-UHFFFAOYSA-N,-2.1308
Dextroamphetamine,CAS51-64-9,CC(N)Cc1ccccc1.Cl,SEVKYLYIYIKRSW-UHFFFAOYSA-N,-2.13
Sildenafil,CAS139755-83-2,CCCc1nn(C)c2c(=O)[nH]c(-c3cc(S(=O)(=O)N4CCN(C)CC4)ccc3OCC)nc12,BNRNXUUZRGQAQC-UHFFFAOYSA-N,-2.13
"l-tyrosine, n-methyl-",,CN[C@@H](Cc1ccc(O)cc1)C(O)=O,AXDLCFOOGCNDST-VIFPVBQESA-N,-2.1325
"1,4-benzenedicarboxylic acid, 2-bromo-",,OC(=O)c1ccc(C(O)=O)c(Br)c1,QPBGNSFASPVGTP-UHFFFAOYSA-N,-2.1339
2-(p-chlorophenoxy)propionic acid,,CC(Oc1ccc(Cl)cc1)C(O)=O,DKHJWWRYTONYHB-UHFFFAOYSA-N,-2.1351
ethyl 2-phenylacetate,,CCOC(=O)Cc1ccccc1,DULCUDSUACXJJC-UHFFFAOYSA-N,-2.136202486
2-(1h)-quinolinone,,O=C1Nc2ccccc2C=C1,LISFMEBWQUVKPJ-UHFFFAOYSA-N,-2.1394
2-carboxy-n(benzoyloxyacetyl)azetidine,,OC(=O)C1CCN1C(=O)COC(=O)C2=CC=CC=C2,JLZFEIOGWCNGPG-UHFFFAOYSA-N,-2.14
"n,o-diacetylacyclovir",,CC(=O)NC1=NC2=C(N=C[N]2COCCOC(C)=O)C(=O)N1,VBHLKZHSCMQLTI-UHFFFAOYSA-N,-2.14
"2,3-DIMETHOXYBENZOIC ACID",,COC1=CC=CC(C(=O)O)=C1OC,FODBVCSYJKNBLO-UHFFFAOYSA-N,-2.14
N-(6-methoxypyridin-3-yl)cyclopropanecarboxamide,,COC1=NC=C(NC(=O)C2CC2)C=C1,JPLCQHHISLYGRA-UHFFFAOYSA-N,-2.14
"1,1,1-Trichloroethane  ",,CC(Cl)(Cl)Cl,UOCLXMDMGBRAIB-UHFFFAOYSA-N,-2.14
p-methylphenoxyacetic acid,,Cc1ccc(OCC(O)=O)cc1,SFTDDFBJWUWKMN-UHFFFAOYSA-N,-2.1414
"phosphonic acid, 4-morpholinyl-, diphenyl ester",,O=[P](Oc1ccccc1)(Oc2ccccc2)N3CCOCC3,YHQZCZRZUDDZTA-UHFFFAOYSA-N,-2.1425
m-toluic acid,,Cc1cccc(c1)C(O)=O,GPSDUZXPYCFOSQ-UHFFFAOYSA-N,-2.1428
"N,N-dimethylnonanamide",,CCCCCCCCC(=O)N(C)C,DMLHJLWUADABON-UHFFFAOYSA-N,-2.144049559
"2h-1,4-benzoxazin-3(4h)-one, 4-methyl-",,CN1C(=O)COc2ccccc12,DBJMEBUKQVZWMD-UHFFFAOYSA-N,-2.1445
4-ethylacetanilide,,CCc1ccc(NC(C)=O)cc1,HOPWGOFWAPWHDS-UHFFFAOYSA-N,-2.1453
tetraethyl silicate,,CCO[Si](OCC)(OCC)OCC,BOTDANWDWHJENH-UHFFFAOYSA-N,-2.145565545
4-methyl-4-phenylpentan-2-ol,,CC(O)CC(C)(C)c1ccccc1,NCYQVRNLBAYSLE-UHFFFAOYSA-N,-2.147286724
5-Ethyl-5-isopropylbarbituric acid,,O=C1NC(=O)NC(=O)C1(CC)C(C)C,HHLXJTDUHFBYAU-UHFFFAOYSA-N,-2.148
3-nitrosalicyclic acid,,OC(=O)c1cccc(c1O)[N+]([O-])=O,WWWFHFGUOIQNJC-UHFFFAOYSA-N,-2.149
"1,2-dibromopropane",,CC(Br)CBr,XFNJYAKDBJUJAJ-UHFFFAOYSA-N,-2.1498
thiamphenicol,,C[S](=O)(=O)C1=CC=C(C=C1)C(O)C(CO)NC(=O)C(Cl)Cl,OTVAEFIXJLOWRX-UHFFFAOYSA-N,-2.15
n-piperidin-1-ylmethylbenzamide,,O=C(NCN1CCCCC1)C2=CC=CC=C2,ATCWBLHLEMDUCP-UHFFFAOYSA-N,-2.15
"2,6-dichlorophenoxyacetic  acid",,OC(=O)COC1=C(Cl)C=CC=C1Cl,KHZWIIFEFQBNKL-UHFFFAOYSA-N,-2.15
6-mercapto-(s-acetoxymethyl)purine,,CC(=O)OCSC1=NC=NC2=C1N=C[NH]2,WOHYIPNWSCCKOE-UHFFFAOYSA-N,-2.15
"6-methyl-3,8-dihydropteridine-4,7-dione",,CC1=NC2=C(N=CNC2=O)NC1=O,QAMLXSWNZSGVKP-UHFFFAOYSA-N,-2.15
"N,N-diethyl-1-phenothiazin-10-ylpropan-2-amine",,CCN(CC)C(C)CN1C2=C(C=CC=C2)SC2=C1C=CC=C2,CDOZDBSBBXSXLB-UHFFFAOYSA-N,-2.15
propylthiouracil,,CCCC1=CC(=O)NC(=S)N1,KNAHARQHSZJURB-UHFFFAOYSA-N,-2.1504
3-chloro-2-methylaniline,,Cc1c(N)cccc1Cl,ZUVPLKVDZNDZCM-UHFFFAOYSA-N,-2.15106632
"2,3-bis(nitrooxy)propyl nitrate",,[O-][N+](=O)OCC(CO[N+]([O-])=O)O[N+]([O-])=O,SNIOPGDIGTZGOP-UHFFFAOYSA-N,-2.152068465
2-methoxy-4-(prop-2-en-1-yl)phenol,,COc1cc(CC=C)ccc1O,RRAFCDWBNXTKKO-UHFFFAOYSA-N,-2.153177924
octan-2-one,,CCCCCCC(C)=O,ZPVFWPFBNIEHGJ-UHFFFAOYSA-N,-2.153696327
isocarbamid,,CC(C)CNC(=O)N1CCNC1=O,SBYAVOHNDJTVPA-UHFFFAOYSA-N,-2.1538
"benzamide, 3-(aminosulfonyl)-",,NC(=O)c1cccc(c1)[S](N)(=O)=O,AJVBPNRMKNARPG-UHFFFAOYSA-N,-2.1554
indazole,,[nH]1ncc2ccccc12,BAXOFTOLAUCFNW-UHFFFAOYSA-N,-2.1554
"2,2-difluoro-1,3-benzodioxole-4-carbaldehyde",,FC1(F)Oc2cccc(C=O)c2O1,NIBFJPXGNVPNHK-UHFFFAOYSA-N,-2.155833357
"2,4,6(1h,3h,5h)-pyrimidinetrione, 5-ethyl-5-(1-p",,CCC1(N2CCCCC2)C(=O)NC(=O)NC1=O,ZFVLHMJCLWOOOY-UHFFFAOYSA-N,-2.1562
disodium 7-benzamido-4-hydroxy-3-[(E)-2-{4-[(E)-2-(4-sulfonatophenyl)diazen-1-yl]phenyl}diazen-1-yl]naphthalene-2-sulfonate,,[Na+].[Na+].[O-][S](=O)(=O)c1ccc(cc1)N=Nc2ccc(N\N=C\3C(=O)c4ccc(NC(=O)c5ccccc5)cc4C=C3[S]([O-])(=O)=O)cc2,OTPBDPKSNGORHR-ATQPHANLSA-L,-2.156676448
"1,3-diphenylguanidine",,NC(Nc1ccccc1)=Nc2ccccc2,OWRCNXZUPFZXOS-UHFFFAOYSA-N,-2.157516386
"benzenemethanol, 2-bromo-",,OCc1ccccc1Br,IOWGHQGLUMEZKG-UHFFFAOYSA-N,-2.158
molybdenum trioxide,,O=[Mo](=O)=O,JKQOBWVOAYFWKG-UHFFFAOYSA-N,-2.158172447
isobutyl isobutyrate,,CC(C)COC(=O)C(C)C,RXGUIWHIADMCFC-UHFFFAOYSA-N,-2.159
"4-heptanol, 2,6-dimethyl-",,CC(C)CC(O)CC(C)C,HXQPUEQDBSPXTE-UHFFFAOYSA-N,-2.159
"n1,n1,n4-trimethyl-n4-(butanoyl)sulfanilamide",,CCCC(=O)N(C)C1=CC=C(C=C1)[S](=O)(=O)N(C)C,HVRPQVNLNIHIRC-UHFFFAOYSA-N,-2.16
dimethylglyoxime,,CC(=N\O)\C(C)=N\O,JGUQDUKBUKFFRO-CIIODKQPSA-N,-2.16
2-(carbamoylamino)hexanoic acid,,CCCCC(NC(N)=O)C(=O)O,CRTBNFJSWPZSQM-UHFFFAOYSA-N,-2.16
6-(carbamoylamino)hexanoic acid,,NC(=O)NCCCCCC(=O)O,BQNWWHFSEXYHKU-UHFFFAOYSA-N,-2.16
N-pentanoylpentanehydrazide,,CCCCC(=O)NNC(=O)CCCC,UMNBCVIEWOTTAP-UHFFFAOYSA-N,-2.16
2-(carboxymethylamino)-3-phenylpropanoic acid,,O=C(O)CNC(CC1=CC=CC=C1)C(=O)O,FVQDAMVODWHNOJ-UHFFFAOYSA-N,-2.16
4-amino-N-pyrimidin-2-ylbenzenesulfonamide,,NC1=CC=C(S(=O)(=O)NC2=NC=CC=N2)C=C1,SEEPANYCNGTZFQ-UHFFFAOYSA-N,-2.16
4-Nitrobenzohydrazide,,C1=CC(=CC=C1C(=O)NN)[N+](=O)[O-],FKZXYJYTUSGIQE-UHFFFAOYSA-N,-2.16
2-ethylhexan-1-ol,,CCCCC(CC)CO,YIWUKEYIRIRTPP-UHFFFAOYSA-N,-2.160471866
"1-chloro-1,2,2-trifluoroethene",,FC(F)=C(F)Cl,UUAGAQFQZIEFAH-UHFFFAOYSA-N,-2.160954298
"(3S,4aS,8aR)-N-tert-butyl-3,4,4a,5,6,7,8,8a-octahydro-1H-isoquinolin-2-ium-3-carboxamide",,CC(C)(C)NC(=O)[C@@H]1C[C@@H]2CCCC[C@H]2C[NH2+]1,UPZBXVBPICTBDP-SRVKXCTJSA-O,-2.161609361
6-hydroxyquinoline,,Oc1ccc2ncccc2c1,OVYWMEWYEJLIER-UHFFFAOYSA-N,-2.1618
o-chlorophenoxyacetic acid,,OC(=O)COc1ccccc1Cl,OPQYFNRLWBWCST-UHFFFAOYSA-N,-2.1637
"2h-azepin-2-one, 1-benzoylhexahydro-",,O=C1CCCCCN1C(=O)c2ccccc2,FEFQUIPMKBPKAR-UHFFFAOYSA-N,-2.1667
"1,4-dichloro-2-butene(trans)",,ClC/C=C/CCl,FQDIANVAWVHZIR-OWOJBTEDSA-N,-2.1675
3-hexyne,,CCC#CCC,DQQNMIPXXNPGCV-UHFFFAOYSA-N,-2.1675
trilithium(1+) ion hexafluoroalumanetriuide,,[Li+].[Li+].[Li+].[F-].[F-].[F-].[F-].[F-].[F-].[Al+3],VRSRNLHMYUACMN-UHFFFAOYSA-H,-2.167567043
Trichloroacetonitrile,,ClC(Cl)(Cl)C#N,DRUIESSIVFYOMK-UHFFFAOYSA-N,-2.168
"1,3-benzenedisulfonamide",,N[S](=O)(=O)c1cccc(c1)[S](N)(=O)=O,HUYYFHGIHVULSU-UHFFFAOYSA-N,-2.1693
cyclobarbital,,CCC1(C(=O)NC(=O)NC1=O)C2=CCCCC2,WTYGAUXICFETTC-UHFFFAOYSA-N,-2.1693
"methoxymethyl  2,2-diethylmalonurate",,CCC(CC)(C(=O)NC(N)=O)C(=O)OCOC,UQAMZYUCRWJDDJ-UHFFFAOYSA-N,-2.17
"methyl  2,2-diallylmalonurate",,COC(=O)C(CC=C)(CC=C)C(=O)NC(N)=O,KXJAQUIZSZBSID-UHFFFAOYSA-N,-2.17
2-(pivaloyloxymethyl)allopurinol,,CC(C)(C)C(=O)OC[N]1C=C2C(=O)NC=NC2=N1,WLATWLPHXIPYFO-UHFFFAOYSA-N,-2.17
5-allyl-5-butylbarbituric  acid,,CCCCC1(CC=C)C(=O)NC(=O)NC1=O,RRWVWLGUQPLOMY-UHFFFAOYSA-N,-2.17
7-(pivaloyloxymethyl)theophylline (viii),,CN1C(=O)N(C)C2=C([N](COC(=O)C(C)(C)C)C=N2)C1=O,BFABOEKGZASJFN-UHFFFAOYSA-N,-2.17
amoxicillin,,CC1(C)SC2C(NC(=O)C(N)C3=CC=C(O)C=C3)C(=O)N2C1C(O)=O,LSQZJLSUYDQPKJ-UHFFFAOYSA-N,-2.17
"5-butyl-5-(2-hydroxyethyl)-2-sulfanylidene-1,3-diazinane-4,6-dione",,CCCCC1(CCO)C(=O)NC(=S)NC1=O,YVBQKDHVODLDMZ-UHFFFAOYSA-N,-2.17
3-(trifluoromethyl)acridin-9-amine,,NC1=C2C=CC(C(F)(F)F)=CC2=NC2=C1C=CC=C2,QMYXIDFAHHRUHP-UHFFFAOYSA-N,-2.17
"benzenepropanal, .alpha.-oxo-",,O=CC(=O)Cc1ccccc1,OFMBSIAKTAZWIE-UHFFFAOYSA-N,-2.1707
cycloheptatriene,,C1C=CC=CC=C1,CHVJITGCYZJHLR-UHFFFAOYSA-N,-2.1721
dulcin,,CCOc1ccc(NC(N)=O)cc1,GGLIEWRLXDLBBF-UHFFFAOYSA-N,-2.173
"5-(4-hydroxyphenyl)imidazolidine-2,4-dione",,Oc1ccc(cc1)C2NC(=O)NC2=O,UMTNMIARZPDSDI-UHFFFAOYSA-N,-2.17310492
"sodium 1-amino-9,10-dioxo-4-(phenylamino)-9,10-dihydroanthracene-2-sulfonate",,[Na+].Nc1c(cc(Nc2ccccc2)c3C(=O)c4ccccc4C(=O)c13)[S]([O-])(=O)=O,LIKZXCROQGHXTI-UHFFFAOYSA-M,-2.173896088
Clemastine,CAS15686-51-8,CN1CCC[C@@H]1CCO[C@](C)(c1ccccc1)c1ccc(Cl)cc1,YNNUSGIPVFPVBX-NHCUHLMSSA-N,-2.17
3-(2-chlorophenyl)-3-oxopropanenitrile,,Clc1ccccc1C(=O)CC#N,SBSWHTFHLWSSQS-UHFFFAOYSA-N,-2.175139595
Sulpiride,CAS15676-16-1,CCN1CCCC1CNC(=O)c1cc(S(N)(=O)=O)ccc1OC,BGRJTUBHPOOWDU-UHFFFAOYSA-N,-2.18
librium,,CN=C1CN(O)C(=C2C=C(Cl)C=CC2=N1)c3ccccc3,BUCORZSTKDOEKQ-UHFFFAOYSA-N,-2.1757
Chlordiazepoxide,CAS58-25-3,CNC1=Nc2ccc(Cl)cc2C(c2ccccc2)=[N+]([O-])C1,ANTSCNMPPGJYLG-UHFFFAOYSA-N,-2.18
"1H-1,3-benzodiazole-2-thiol",,S=C1Nc2ccccc2N1,YHMYGUUIMTVXNW-UHFFFAOYSA-N,-2.176687281
4-chlorobenzaldehyde,,Clc1ccc(C=O)cc1,AVPYQKSLYISFPO-UHFFFAOYSA-N,-2.177077944
carbutamide,,CCCCNC(=O)N[S](=O)(=O)c1ccc(N)cc1,VDTNNGKXZGSZIP-UHFFFAOYSA-N,-2.1782
5-nitroisophthalic acid,,OC(=O)c1cc(cc(c1)[N+]([O-])=O)C(O)=O,NBDAHKQJXVLAID-UHFFFAOYSA-N,-2.178419855
butanethiol,,CCCCS,WQAQPCDUOCURKW-UHFFFAOYSA-N,-2.1792
2-methoxy-4-propylphenol,,CCCc1ccc(O)c(OC)c1,PXIKRTCSSLJURC-UHFFFAOYSA-N,-2.179290593
"benzaldehyde, 3-bromo-4-hydroxy-",,Oc1ccc(C=O)cc1Br,UOTMHAOCAJROQF-UHFFFAOYSA-N,-2.1794
2(3h)-benzoxazolethione,,S=C1Nc2ccccc2O1,FLFWJIBUZQARMD-UHFFFAOYSA-N,-2.1795
cadmium(2+) ion carbonate,,[Cd++].[O-]C([O-])=O,GKDXQAKPHKQZSC-UHFFFAOYSA-L,-2.179682789
"ethyl 2-(2,4-dimethyl-1,3-dioxolan-2-yl)acetate",,CCOC(=O)CC1(C)OCC(C)O1,GSIXJEIRJVOUFB-UHFFFAOYSA-N,-2.179887223
phenallymal,,c1ccccc1C2(CC=C)C(=O)NC(=O)NC2=O,WOIGZSBYKGQJGL-UHFFFAOYSA-N,-2.18
l-Dihydrocarvone,,O=C1C(C)CCC(C(C)=C)C1,AZOCECCLWFDTAP-UHFFFAOYSA-N,-2.18
"3,10-diamino-2-{[6-(4-tert-butylbenzenesulfonamido)naphthalen-2-yl]sulfonyl}-6,13-dichloro-5,12-dioxa-7,14-diazapentacene-4,11-disulfonic acid lithium potassium sodium",,[Li].[Na].[K].CC(C)(C)c1ccc(cc1)[S](=O)(=O)Nc2ccc3cc(ccc3c2)[S](=O)(=O)c4cc5N=C6C(=C7Oc8c(ccc(N)c8[S](O)(=O)=O)N=C7C(=C6Oc5c(c4N)[S](O)(=O)=O)Cl)Cl,PDTCPVSOIVGWMZ-UHFFFAOYSA-N,-2.180765898
"l-tyrosine, n-acetyl-3,5-dibromo-",,CC(=O)N[C@@H](Cc1cc(Br)c(O)c(Br)c1)C(O)=O,FNGNLZLLBCYMOG-VIFPVBQESA-N,-2.183
Mesalamine; Mesalazine,CAS46782793,CCC(=O)NC1=CC(=C(C=C1)O)C(=O)O,WQIMCNDDLFCXFG-UHFFFAOYSA-N,-2.19
"4-nitrobenzene-1,3-diamine",,Nc1ccc(c(N)c1)[N+]([O-])=O,DPIZKMGPXNXSGL-UHFFFAOYSA-N,-2.185091479
"phenol, 2-methyl-5-nitro-",,Cc1ccc(cc1O)[N+]([O-])=O,UMFDLIXUUJMPSI-UHFFFAOYSA-N,-2.1851
2-nitrophenyl acetate,,CC(=O)Oc1ccccc1[N+]([O-])=O,MRCKRGSNLOHYRA-UHFFFAOYSA-N,-2.185523911
zinc dihydroxide,,[OH-].[OH-].[Zn++],UGZADUVQMDAIAO-UHFFFAOYSA-L,-2.185828855
Lorcainide Hydrochloride,CAS58934-46-6,CC(C)N1CCC(N(C(=O)Cc2ccccc2)c2ccc(Cl)cc2)CC1.Cl,FSFSWNBDCJVFGI-UHFFFAOYSA-N,-2.19
2-tert-butylphenol,,CC(C)(C)c1ccccc1O,WJQOZHYUIDYNHM-UHFFFAOYSA-N,-2.189958914
3-methylisoquinoline,,CC1=CC2=C(C=CC=C2)C=N1,FVVXWRGARUACNW-UHFFFAOYSA-N,-2.19
"sulfatroxazole;  4,5-dimethyl-3-sulfaisoxazole",,CC1=C(C)C(=NO1)N[S](=O)(=O)C2=CC=C(N)C=C2,DAUFGBIKKGOPJA-UHFFFAOYSA-N,-2.19
nifuroxime,,o1c(N(=O)(=O))ccc1C=NO,PTBKFATYSVLSSD-UHFFFAOYSA-N,-2.19
hydroxy-[5-[hydroxy(oxo)azaniumyl]oxypentoxy]-oxoazanium,,C(CCO[N+](=O)O)CCO[N+](=O)O,XYXJYNMWAQDFCL-UHFFFAOYSA-N,-2.19
"(1,5,8a-trimethyl-2,8-dioxo-3a,4,5,5a,9,9a-hexahydro-1H-azuleno[6,5-b]furan-9-yl) acetate",,CC(=O)OC1C2C(CC(C)C3C=CC(=O)C31C)OC(=O)C2C,NEIIKBWBBCJSQU-UHFFFAOYSA-N,-2.19
thymol,,c1(cc(ccc1C(C)C)C)O,MGSRCZKZVOBKFT-UHFFFAOYSA-N,-2.19
"butanedioic acid, (diphenylmethylene)-, 1-ethyl",,CCOC(=O)C(CC(O)=O)=C(c1ccccc1)c2ccccc2,DLPKPLGMFNWETI-UHFFFAOYSA-N,-2.1908
"2,2'-(octylimino)diethanol",,CCCCCCCCN(CCO)CCO,QZQNMMLYACBCMJ-UHFFFAOYSA-N,-2.191037603
2-[(4-amino-2-nitrophenyl)amino]ethan-1-ol,,Nc1ccc(NCCO)c(c1)[N+]([O-])=O,GZGZVOLBULPDFD-UHFFFAOYSA-N,-2.191089976
"benzaldehyde, 4-ethoxy-3-methoxy-",,CCOc1ccc(C=O)cc1OC,BERFDQAMXIBOHM-UHFFFAOYSA-N,-2.1913
"3-(oxiran-2-ylmethoxy)-N,N-bis(oxiran-2-ylmethyl)aniline",,C1OC1COc2cccc(c2)N(CC3CO3)CC4CO4,VAGOJLCWTUPBKD-UHFFFAOYSA-N,-2.192561189
6-methyloct-5-en-2-one,,CC\C(C)=C\CCC(C)=O,SAXWRVSDVXCTEL-SOFGYWHQSA-N,-2.192586036
nifuroxime,,O/N=C/c1oc(cc1)[N+]([O-])=O,PTBKFATYSVLSSD-ZZXKWVIFSA-N,-2.1934
p-(sec-butyl)phenol,,CCC(C)c1ccc(O)cc1,ZUTYZAFDFLLILI-UHFFFAOYSA-N,-2.1945
m-chlorophenoxyacetic acid,,OC(=O)COc1cccc(Cl)c1,XSBUXVWJQVTYLC-UHFFFAOYSA-N,-2.1954
"1,1,1,2-tetrachloroethane",,ClCC(Cl)(Cl)Cl,QVLAWKAXOMEXPM-UHFFFAOYSA-N,-2.1955
"propionic acid, 3-ethoxy-, pentyl ester",,CCCCCOC(=O)CCOCC,LECMFIIQEQTPNP-UHFFFAOYSA-N,-2.1956
Dantrolene,CAS85008-71-5,C1C(=NC(=O)N1N=CC2=CC=C(O2)C3=CC=C(C=C3)[N+](=O)[O-])[O-].[Na+],KSRLIXGNPXAZHD-UHFFFAOYSA-M,-2.2
"barbituric acid, 5,5-di-2-butenyl-",,C/C=C/CC1(C\C=C\C)C(=O)NC(=O)NC1=O,OJXLDQJJHBLYOT-GGWOSOGESA-N,-2.1973
1-bromobutane,,CCCCBr,MPPPKRYCTPRNTB-UHFFFAOYSA-N,-2.197764187
2-butyl-4-chloro-1H-imidazole-5-carbaldehyde,,CCCCc1[nH]c(Cl)c(C=O)n1,JLVIHQCWASNXCK-UHFFFAOYSA-N,-2.199127372
"sodium 5-[(2,4-dinitrophenyl)amino]-2-(phenylamino)benzene-1-sulfonate",,[Na+].[O-][N+](=O)c1ccc(Nc2ccc(Nc3ccccc3)c(c2)[S]([O-])(=O)=O)c(c1)[N+]([O-])=O,KKBFCPLWFWQNFB-UHFFFAOYSA-M,-2.199137363
ethyl 4-hydroxybenzoate;  ethylparaben,,CCOC(=O)C1=CC=C(O)C=C1,NUVBSKCKDOMJSU-UHFFFAOYSA-N,-2.2
clarithromycin,,CCC1OC(=O)C(C)C(OC2CC(C)(OC)C(O)C(C)O2)C(C)C(OC3OC(C)CC(C3O)N(C)C)C(C)(CC(C)C(=O)C(C)C(O)C1(C)O)OC,AGOYDEPGAOXOCK-UHFFFAOYSA-N,-2.2
allopurin-2-yl-methyl  butyrate;  2-(butanoyloxymethyl)allopurinol,,CCCC(=O)OC[N]1C=C2C(=O)NC=NC2=N1,BKEJTAUUSZULEO-UHFFFAOYSA-N,-2.2
"2-sulfamoyl-5-(4-iodobenzenesulfonamido)-1,3,4-thiadiazole",,N[S](=O)(=O)C1=NN=C(N[S](=O)(=O)C2=CC=C(I)C=C2)S1,NIRNPVHJRLYNLW-UHFFFAOYSA-N,-2.2
"5,5-Bis[(E)-but-2-enyl]-1,3-diazinane-2,4,6-trione",,CC=CCC1(CC=CC)C(=O)NC(=O)NC1=O,OJXLDQJJHBLYOT-UHFFFAOYSA-N,-2.2
"2,5-Di-S-allyl-3,4-dideoxy-2,5-dithiohexaric acid",,C=CCSC(CCC(SCC=C)C(=O)O)C(=O)O,WOINBLKRRRAPGG-UHFFFAOYSA-N,-2.2
N-hexylsulfonylhexane-1-sulfonamide,,CCCCCCS(=O)(=O)NS(=O)(=O)CCCCCC,CKPIWBTXNLQELX-UHFFFAOYSA-N,-2.2
8-hydroxy-7-iodoquinoline-5-sulfonic acid,,O=S(=O)(O)C1=C2C=CC=NC2=C(O)C(I)=C1,ZBJWWKFMHOAPNS-UHFFFAOYSA-N,-2.2
"N,N'-Bis(2-methylphenyl)-2-oxomalonamide",,CC1=C(NC(=O)C(=O)C(=O)NC2=C(C)C=CC=C2)C=CC=C1,GDLUURVRLLHAQO-UHFFFAOYSA-N,-2.2
"1,2-dichloro-1,1-difluoroethane",,FC(F)(Cl)CCl,SKDFWEPBABSFMG-UHFFFAOYSA-N,-2.2007
diphenyl methylphosphonate,,C[P](=O)(Oc1ccccc1)Oc2ccccc2,HPUPGAFDTWIMBR-UHFFFAOYSA-N,-2.201708674
Sodium; cobalt(3+); 1-[(2-oxido-5-sulfamoylphenyl)diazenyl]naphthalen-2-olate,,[Na+].[Co+3].N[S](=O)(=O)c1ccc([O-])c(c1)N=Nc2c([O-])ccc3ccccc23.N[S](=O)(=O)c4ccc([O-])c(c4)N=Nc5c([O-])ccc6ccccc56,PHQDZULYJVQNFM-UHFFFAOYSA-J,-2.202203848
(4R)-4-methyl-2-propyloxan-4-yl acetate (4S)-4-methyl-2-propyloxan-4-yl acetate,,CCCC1C[C@](C)(CCO1)OC(C)=O.CCCC2C[C@@](C)(CCO2)OC(C)=O,TWUVPRFPARHRLV-URIZOGIISA-N,-2.204723233
"2,6-dihydroxynaphthalene",,Oc1ccc2cc(O)ccc2c1,MNZMMCVIXORAQL-UHFFFAOYSA-N,-2.205
2-amino-4-nitrophenol,,Nc1cc(ccc1O)[N+]([O-])=O,VLZVIIYRNMWPSN-UHFFFAOYSA-N,-2.205601857
toluene,,Cc1ccccc1,YXFVVABEGXRONW-UHFFFAOYSA-N,-2.206298299
"3,5-dinitrobenzoic acid",,OC(=O)c1cc(cc(c1)[N+]([O-])=O)[N+]([O-])=O,VYWYYJYRVSBHJQ-UHFFFAOYSA-N,-2.207649723
sodium bis[2-[[5-(aminosulphonyl)-2-hydroxyphenyl]azo]-3-oxo-N-phenylbutyramidato(2-)]cobaltate(1-),,[Na+].[Co+3].CC(=O)/C(=N/Nc1cc(ccc1[O-])[S](N)(=O)=O)C(=O)[N-]c2ccccc2.CC(=O)/C(=N/Nc3cc(ccc3[O-])[S](N)(=O)=O)C(=O)[N-]c4ccccc4,GOMMRZOFKXWNAB-UHFFFAOYSA-J,-2.208470112
"barbituric acid, 5-bromo-5-isopropyl-",,CC(C)C1(Br)C(=O)NC(=O)NC1=O,VDWQDWRNMYXLOV-UHFFFAOYSA-N,-2.2088
benzilic acid,,OC(=O)C(O)(c1ccccc1)c2ccccc2,UKXSKSHDVLQNKG-UHFFFAOYSA-N,-2.2092
pimaricin;  natamycin,,CC1C\C=C\C=C\C=C\C=C\C(CC2OC(O)(CC(O)CC3OC3/C=C/C(=O)O1)CC(O)C2C([O-])=O)OC4OC(C)C(O)C([NH3+])C4O,NCXMLFZGDNKEPB-YLTFDBFKSA-N,-2.21
n3-[(3-hydroxy-2-hydroxymethyl)propanoyloxymethyl]phenytoin,,OCC(CO)C(=O)OCN1C(=O)NC(C1=O)(C2=CC=CC=C2)C3=CC=CC=C3,WTFDBEWCLSDGPA-UHFFFAOYSA-N,-2.21
4-[4-(butylaminomethyl)benzoyl]thiophene-2-sulfonamide,,CCCCNCC1=CC=C(C(=O)C2=CSC(S(N)(=O)=O)=C2)C=C1,CWUFUYMCWCMVPX-UHFFFAOYSA-N,-2.21
bis(trimethylsilyl)amine,,C[Si](C)(C)N[Si](C)(C)C,FFUAGWLWBBFQJT-UHFFFAOYSA-N,-2.210072377
disodium 7-[(E)-2-(6-amino-1-hydroxy-3-sulfonatonaphthalen-2-yl)diazen-1-yl]-4-hydroxy-3-[(E)-2-phenyldiazen-1-yl]naphthalene-2-sulfonate,,[Na+].[Na+].Nc1ccc2C(=O)C(=N/Nc3ccc4C(=O)C(=N/Nc5ccccc5)\C(=Cc4c3)[S]([O-])(=O)=O)/C(=Cc2c1)[S]([O-])(=O)=O,KNZOIDDFJVQVDM-NJXRNGNASA-L,-2.210130555
[2-(dodecanoyloxy)ethyl]trimethylazanium chloride,,[Cl-].CCCCCCCCCCCC(=O)OCC[N+](C)(C)C,BBJUKVPDIPYNBS-UHFFFAOYSA-M,-2.211100306
methyl 2-phenylacetate,,COC(=O)Cc1ccccc1,CRZQGDNQQAALAY-UHFFFAOYSA-N,-2.211401723
bianisidine,,Cc1cc(ccc1N)c2ccc(N)c(C)c2,NUIURNJTPRWVAP-UHFFFAOYSA-N,-2.213
calcium dimagnesium(2+) ion tetrahydroxide oxidandiide,,C[C@]12CCC(=O)C=C1CC[C@@H]3[C@@H]2CC[C@@]4(C)[C@H]3C(O)CC4=O,MYKMKUGZFQKMOZ-HYNIEHHYSA-N,-2.213096942
Butorphanol,CAS42408-82-2,Oc1ccc2c(c1)[C@@]13CCCC[C@@]1(O)[C@@H](C2)N(CC1CCC1)CC3,IFKLAQQSCNILHL-QHAWAJNXSA-N,-2.21
p-meo-b-phenylpropionic acid,,COc1ccc(CCC(O)=O)cc1,FIUFLISGGHNPSM-UHFFFAOYSA-N,-2.2144
"2,4,5-trichlorophenol",,Oc1cc(Cl)c(Cl)cc1Cl,LHJGJYXLEPZJPM-UHFFFAOYSA-N,-2.2163
"trisodium 4-amino-5-hydroxy-3-[(E)-2-{4-[(E)-2-[2-oxo-1-(phenylcarbamoyl)propyl]diazen-1-yl]phenyl}diazen-1-yl]-6-[(E)-2-(4-sulfonatonaphthalen-1-yl)diazen-1-yl]naphthalene-2,7-disulfonate",,[Na+].[Na+].[Na+].CC(=O)C(N=Nc1ccc(cc1)N=Nc2c(N)c3c(cc2[S]([O-])(=O)=O)C=C(\C(=N/Nc4ccc(c5ccccc45)[S]([O-])(=O)=O)C3=O)[S]([O-])(=O)=O)C(=O)Nc6ccccc6,ZZXARQYSWIVLGM-ICCBSFAUSA-K,-2.218028318
"2-furoic acid, 3,4,5-trichloro-",,OC(=O)c1oc(Cl)c(Cl)c1Cl,WKDGIASDCHPIDT-UHFFFAOYSA-N,-2.2193
"sulfamoxole;  2-sulfa-4,5-dimethyloxazole",,CC1=C(C)N=C(N[S](=O)(=O)C2=CC=C(N)C=C2)O1,CYFLXLSBHQBMFT-UHFFFAOYSA-N,-2.22
"boc-phe-his-sta-leu-nh-ch2ch2-ch(nh2)-cooh, analog 16)",,CC(C)CC(NC(=O)C(CC1=C[NH]C=N1)NC(=O)C(CC2=CC=CC=C2)NC(=O)OC(C)(C)C)C(O)CC(=O)NC(CC(C)C)C(=O)NCCC(N)C(O)=O,HZMKMSYGVTVKSN-UHFFFAOYSA-N,-2.22
"(2,2-dimethyl-1,3-dithiolan-4-yl)methyl carbamate",,CC1(C)SCC(COC(N)=O)S1,NVMAYDSQOSXSJU-UHFFFAOYSA-N,-2.22