Name,ID,SMILES,inchi,LogS
tetrafluoromethane,,FC(F)(F)F,TXEYQDLBPFQVAA-UHFFFAOYSA-N,-3.670339628
RTI 10,,O2c1ccccc1N(C)C(=O)c3cccnc23 ,BBMMISOHGVCAMY-UHFFFAOYSA-N,-3.672
"benzamide, 2,4-dichloro-n-hydroxy-n-phenyl-",,ON(c1ccccc1)C(=O)c2ccc(Cl)cc2Cl,HUOHOGDVFDYSTQ-UHFFFAOYSA-N,-3.6723
Sulfur hexafluoride,,F[S](F)(F)(F)(F)F,SFZCNBIFKDRMGX-UHFFFAOYSA-N,-3.673154735
"phosphoramidic acid, (4-methyl-1,3-dithiolan-2-y",,CCO[P](=O)(OCC)N=C1SCC(C)S1,LTQSAUHRSCMPLD-UHFFFAOYSA-N,-3.6744
"2,4,6-tribromophenol",,Oc1c(Br)cc(Br)cc1Br,BSWWXRFVMJHFBN-UHFFFAOYSA-N,-3.6745
2-phenylethyl pivalate,,CC(C)(C)C(=O)OCCc1ccccc1,DPVYDTACPLLHCF-UHFFFAOYSA-N,-3.675280089
(2-bromoethyl)benzene,,BrCCc1ccccc1,WMPPDTMATNBGJN-UHFFFAOYSA-N,-3.6757
Desmethyldiazepam (Nordazepam),PubChemCID2997,C1C(=O)NC2=C(C=C(C=C2)Cl)C(=N1)C3=CC=CC=C3,AKPLHCDWDRPJGD-UHFFFAOYSA-N,-3.68
3-(3-propan-2-ylphenyl)butanal,,CC(C)c1cccc(c1)C(C)CC=O,OHRBQTOZYGEWCJ-UHFFFAOYSA-N,-3.677346846
,CHEMBL1682813,CC(=O)N1CCOc2nc(ccc12)C#Cc3ccccc3,ZQKDRKYFMGXQPZ-UHFFFAOYSA-N,-3.677461515
mcpb,,Cc1cc(Cl)ccc1OCCCC(O)=O,LLWADFLAOKUBDR-UHFFFAOYSA-N,-3.678
triadimenol (diastereoisomer a),,CC(C)(C)[C@@H](O)[C@H](Oc1ccc(Cl)cc1)n2cncn2,BAZVSMNPJJMILC-STQMWFEESA-N,-3.6786
mephobarbital;  1-methylphenobarbital;  5-ethyl-1-methyl-5-phenylbarbituric  acid,,CCC1(C(=O)NC(=O)N(C)C1=O)C2=CC=CC=C2,ALARQZQTBTVLJV-UHFFFAOYSA-N,-3.68
triamcinolone,,CC12CC(O)C3(F)C(CCC4=CC(=O)C=CC34C)C1CC(O)C2(O)C(=O)CO,GFNANZIMVAIWHM-UHFFFAOYSA-N,-3.68
parathion-methyl;  methylparathion,,CO[P](=S)(OC)OC1=CC=C(C=C1)[N+]([O-])=O,RLBIQVVOMOPOHC-UHFFFAOYSA-N,-3.68
n-[4-(dimethylsulfamoyl)phenyl]-n-methylheptanoic acid amide,,CCCCCCC(=O)N(C)C1=CC=C(C=C1)[S](=O)(=O)N(C)C,HHMGSXBJVFFCGH-UHFFFAOYSA-N,-3.68
"n1,n4,n4-trimethyl-n1-(heptanoyl)sulfanilamide",,CCCCCCC(=O)N(C)[S](=O)(=O)C1=CC=C(C=C1)N(C)C,QHVARHTXPQPYKM-UHFFFAOYSA-N,-3.68
2-(4-Aminophenyl)-6-methyl-benzothiazole,,N(c(c(S1)cc(c2)C)c2)=C1c(ccc(N)c3)c3,XRTJYEIMLZALBD-UHFFFAOYSA-N,-3.68
RTI 9,,O2c1ccccc1N(CC)C(=O)c3ccccc23 ,MRBRHCRUXKHKKI-UHFFFAOYSA-N,-3.68
"4,4'-Isopropylidenediphenol, oligomeric reaction products with 1-chloro-2,3-epoxypropane, esters with acrylic acid",,CC(C)(c1ccc(O)cc1)c2ccc(O)cc2.OC(=O)C=C.ClCC3CO3,RYSXGWPNVZQNNB-UHFFFAOYSA-N,-3.680444963
"acetamide-2-chloro-n-(2,6-dimethylphenyl)-n-((2-",,CC(C)COCN(C(=O)CCl)c1c(C)cccc1C,BIQOEDQVNIYWPQ-UHFFFAOYSA-N,-3.6822
3-methylpentane,,CCC(C)CC,PFEOZHBOMNWTJB-UHFFFAOYSA-N,-3.6826
salinazid,,O=C(NN\C=C/1C=CC=CC1=O)c2ccncc2,CYKAGXAJJFUETC-LUAWRHEFSA-N,-3.6835
butylate,,CCSC(=O)N(CC(C)C)CC(C)C,BMTAFVWTTFSTOG-UHFFFAOYSA-N,-3.684
"benzoic acid, 4-hydroxy-3-iodo-, propyl ester",,CCCOC(=O)c1ccc(O)c(I)c1,GEFATVANQYOXLC-UHFFFAOYSA-N,-3.6865
"4,6,7-pteridinetrione;  4,6,7(3h,5h,8h)-pteridinetrione",,O=C1NC=NC2=C1NC(=O)C(=O)N2,HMMIQMIGJAIOAZ-UHFFFAOYSA-N,-3.69
"2,4,6-trichloroaniline",,Nc1c(Cl)cc(Cl)cc1Cl,NATVSFWWYVJTAZ-UHFFFAOYSA-N,-3.6912
Triamcinolone,CAS124-94-7,C[C@]12C[C@H](O)[C@@]3(F)[C@@H](CCC4=CC(=O)C=C[C@@]43C)[C@@H]1C[C@@H](O)[C@]2(O)C(=O)CO,GFNANZIMVAIWHM-OBYCQNJPSA-N,-3.69
androstenedione,,C[C@]12CC[C@H]3[C@@H](CCC4=CC(=O)CC[C@]34C)[C@@H]1CCC2=O,AEMFNILZOJDQLW-QAGGRKNESA-N,-3.6949
"benzene, 1,1'- oxybis(methylene) bis-",,C(OCc1ccccc1)c2ccccc2,MHDVGSVTJDSBDK-UHFFFAOYSA-N,-3.695
"6,10-dimethylundeca-5,9-dien-2-one",,CC(C)=CCC\C(C)=C\CCC(C)=O,HNZUNIKWNYHEJJ-FMIVXFBMSA-N,-3.697448425
8-ethylundecan-1-amine,,CCCC(CC)CCCCCCCN,KFBNTNYCQVDLBK-UHFFFAOYSA-N,-3.697625957
Diazepam,CAS439-14-5,CN1C(=O)CN=C(c2ccccc2)c2cc(Cl)ccc21,AAOVKJBEBIDNHE-UHFFFAOYSA-N,-3.7
,CHEMBL2163357,FC(F)(F)Oc1ccc(CNC(=O)C2N([C@@H]3CC[C@H](CC3)C#N)C(=O)c4ccccc24)cc1,LBDXGWAJBUSGFW-DVUVRWKGSA-N,-3.69870535
,CHEMBL2164370,FC(F)(F)Oc1ccc(CNC(=O)C2N(CCN3CCOCC3)C(=O)c4ccccc24)cc1,CUYDXPRHXMAKMH-UHFFFAOYSA-N,-3.698709313
,CHEMBL2164565,CCN(CCO)C(=O)c1cc2cccnn2c1c3cccc(c3)C(F)(F)F,UCJMDMYGVGENKA-UHFFFAOYSA-N,-3.698711108
1-[(2-tert-butylcyclohexyl)oxy]butan-2-ol,,CCC(O)COC1CCCCC1C(C)(C)C,GQBVHGLNSHPKPG-UHFFFAOYSA-N,-3.698734262
"undecanoic acid, 11-bromo-",,OC(=O)CCCCCCCCCCBr,IUDGNRWYNOEIKF-UHFFFAOYSA-N,-3.699
"spiro[benzofuran-2(3h), 1'-[2]cyclohexene]-3,4'-",,COc1cc(OC)c2C(=O)C3(Oc2c1)C(C)CC(=O)C=C3OC,QPCYNIYZPDJCMB-UHFFFAOYSA-N,-3.699
Cefmetazole Sodium,CAS56796-39-5,CO[C@@]1(NC(=O)CSCC#N)C(=O)N2C(C(=O)[O-])=C(CSc3nnnn3C)CS[C@@H]21.[Na+],BITQGIOJQWZUPL-PBCQUBLHSA-M,-3.7
4-tert-butylcyclohexyl acetate,,CC(=O)OC1CCC(CC1)C(C)(C)C,MBZRJSQZCBXRGK-UHFFFAOYSA-N,-3.699640669
"androstenedione;  androst-4-ene-3,17-dione",,CC12CCC3C(CCC4=CC(=O)CCC34C)C1CCC2=O,AEMFNILZOJDQLW-UHFFFAOYSA-N,-3.7
phenazine;  dibenzopyrazine,,C1=CC2=C(C=C1)N=C3C=CC=CC3=N2,PCNDJXKNXGMECE-UHFFFAOYSA-N,-3.7
"n-(3-methyl-5-propylisoxazol-4-yl)-2-hydroxy-1,4-naphthoquinone-4-imine",,CCCC1=C(N=C2C=C(O)C(=O)C3=C2C=CC=C3)C(=NO1)C,JSAKUYFJPZQXBF-UHFFFAOYSA-N,-3.7
dibucaine,,CCCCOc2cc(C(=O)NCCN(CC)CC)c1ccccc1n2,PUFQVTATUTYEAL-UHFFFAOYSA-N,-3.7
Sulfapyrazine,,c1cc(N)ccc1S(=O)(=O)Nc2cnccn2,YEAICDDXRUOCKJ-UHFFFAOYSA-N,-3.7
Naproxen morpholinobutyl ester,,COC1=CC2=CC=C(C(C)C(=O)OCCCCN3CCOCC3)C=C2C=C1,FOJQWBARRQHNJT-UHFFFAOYSA-N,-3.7
fenoprofen,,CC(C(O)=O)c1cccc(Oc2ccccc2)c1,RDJGLLICXDHJDY-UHFFFAOYSA-N,-3.7
"17-hydroxyandrosta-1,4-dien-3-one",,C[C@]12CC[C@H]3[C@@H](CCC4=CC(=O)C=C[C@]34C)[C@@H]1CC[C@@H]2O,RSIHSRDYCUFFLA-DYKIIFRCSA-N,-3.700359651
"benzenamine, n-ethyl-n,2,4,6-tetranitro-",,CCN(c1c(cc(cc1[N+]([O-])=O)[N+]([O-])=O)[N+]([O-])=O)[N+]([O-])=O,AWOPOGMEMRZDQH-UHFFFAOYSA-N,-3.7007
,CHEMBL2180016,CC1(N=C(N)C(=N1)c2ccccc2)c3cccc(c3)c4cccnc4,QCKWDUXMUOHHDA-UHFFFAOYSA-N,-3.700831652
"1,2,4-trichlorobenzene",,Clc1ccc(Cl)c(Cl)c1,PBKONEOXTCPAFI-UHFFFAOYSA-N,-3.702452078
"1-(4-chlorophenoxy)-1-(1H-imidazol-1-yl)-3,3-dimethylbutan-2-one",,CC(C)(C)C(=O)C(Oc1ccc(Cl)cc1)n2ccnc2,OWEGWHBOCFMBLP-UHFFFAOYSA-N,-3.703092646
calcium molybdate,,[Ca++].[O-][Mo]([O-])(=O)=O,BIOOACNPATUQFW-UHFFFAOYSA-N,-3.703694345
(3Z)-hex-3-en-1-yl benzoate,,CC\C=C/CCOC(=O)c1ccccc1,BCOXBEHFBZOJJZ-ARJAWSKDSA-N,-3.704897417
sufentanil,,CCC(=O)N(c1ccccc1)C2(CCN(CCc3sccc3)CC2)COC,GGCSSNBKKAUURC-UHFFFAOYSA-N,-3.7064
Capsaicin,CAS404-86-4,COc1cc(CNC(=O)CCCC/C=C/C(C)C)ccc1O,YKPUWZUDDOIDPM-SOFGYWHQSA-N,-3.71
"2,6-dibromoquinonechloroimide",,ClN=C1C=C(Br)C(=O)C(=C1)Br,JYWKEVKEKOTYEX-UHFFFAOYSA-N,-3.7068
Dihydrodicyclopentadienyl acrylate,,C=CC(=O)OC1C=CC2C3CCC(C3)C12,ISRJTGUYHVPAOR-UHFFFAOYSA-N,-3.708142472
dimethamrtryne,,CCNc1nc(NC(C)C(C)C)nc(SC)n1,IKYICRRUVNIHPP-UHFFFAOYSA-N,-3.7082
,CHEMBL1209429,O=S(=O)(Cc1ccccc1)NCC(N2CCCCCC2)c3ccccc3,RHMLLIYDUFMDOX-UHFFFAOYSA-N,-3.709577168
5-ethyl-5-pentyl-2-thiobarbituric  acid,,CCCCCC1(CC)C(=O)NC(=S)NC1=O,SVRNITUASJCBQJ-UHFFFAOYSA-N,-3.71
"s6,9-bis(butanoyloxymethyl)-6-mercaptopurine; 9-(butanoyloxymethyl)-6-(butanoyloxymethylthio)purine",,CCCC(=O)OCSC1=NC=NC2=C1N=C[N]2COC(=O)CCC,SFXAJOVEEUKUPY-UHFFFAOYSA-N,-3.71
1-Nitronaphthalene,,C1=CC=C2C(=C1)C=CC=C2[N+](=O)[O-],RJKGJBPXVHTNJL-UHFFFAOYSA-N,-3.71
Ceftibuten,CAS97519-39-6,Nc1nc(/C(=C/CC(=O)O)C(=O)N[C@@H]2C(=O)N3C(C(=O)O)=CCS[C@H]23)cs1,UNJFKXSSGBWRBZ-BJCIPQKHSA-N,-3.71
Tellurium dioxide,,O=[Te]=O,LAJZODKXOMJMPK-UHFFFAOYSA-N,-3.715606233
"acetamide, n- 4- (2-pyridinylamino)sulfonyl phen",,CC(=O)Nc1ccc(cc1)[S](=O)(=O)Nc2ccccn2,CYLYVXPHAQLXFG-UHFFFAOYSA-N,-3.7162
"2,6-dinitro-biphenyl-3-ol",,Oc1ccc(c(c2ccccc2)c1[N+]([O-])=O)[N+]([O-])=O,RAHRBPFKDAZSCJ-UHFFFAOYSA-N,-3.7164
phorate,,CCO[P](=S)(OCC)SCSCC,BULVZWIRKLYCBC-UHFFFAOYSA-N,-3.7166
,CHEMBL1631015,COc1cccc2CN(Cc12)C(=O)c3cc(ccc3O[C@@H](C)C(F)(F)F)S(=O)(=O)C,GHFAIKMTCXYODU-LBPRGKRZSA-N,-3.717084224
"N-(3-aminopropyl)-N'-octadec-9-en-1-ylpropane-1,3-diamine",,CCCCCCCC\C=C/CCCCCCCCNCCCNCCCN,ZXUXEWRICDHNKF-KTKRTIGZSA-N,-3.718391335
"1,4-dimethyl 2-aminobenzene-1,4-dicarboxylate",,COC(=O)c1ccc(c(N)c1)C(=O)OC,DSSKDXUDARIMTR-UHFFFAOYSA-N,-3.718503765
n-propylthalidomide,,CCCN1C(=O)CCC(N2C(=O)C3=C(C=CC=C3)C2=O)C1=O,LYIKHGOXEXNKEV-UHFFFAOYSA-N,-3.72
imazaquine,,CC(C)C1(C)N=C(NC1=O)C2=NC3=C(C=CC=C3)C=C2C(O)=O,CABMTIJINOIHOD-UHFFFAOYSA-N,-3.72
benzyl-kni-727,,CC(C)(C)NC(=O)C1N(CSC1(C)C)C(=O)C(O)C(CC2=CC=CC=C2)NC(=O)CC3=CC=CC=C3,IIUYNOCBVMYAHS-UHFFFAOYSA-N,-3.72
phenothiazin-3-one,,O=C1C=CC2=NC3=C(C=CC=C3)SC2=C1,YKGCCFHSXQHWIG-UHFFFAOYSA-N,-3.72
,CHEMBL2164884,CCN(CCO)C(=O)c1cc2ccccn2c1c3cccc(OC)n3,PITYPMPLEOAHRY-UHFFFAOYSA-N,-3.720949796
,CHEMBL2164562,CCN(CCO)C(=O)c1cc2cc(C)cnn2c1c3cccc(c3)C(F)(F)F,BPAUZFYIHBUEAR-UHFFFAOYSA-N,-3.720980854
methyl 2-[3-(acetyloxy)-2-pentylcyclopent-2-en-1-yl]acetate,,CCCCCC1=C(CCC1CC(=O)OC)OC(C)=O,IVEVYZAZHQVESM-UHFFFAOYSA-N,-3.721988672
cyanophos,,CO[P](=S)(OC)Oc1ccc(cc1)C#N,SCKHCCSZFPSHGR-UHFFFAOYSA-N,-3.7232
diflufenzopyr,,C\C(=N/NC(=O)Nc1cc(F)cc(F)c1)c2ncccc2C(O)=O,IRJQWZWMQCVOLA-DNTJNYDQSA-N,-3.7248
Eprosartan,CAS133040-01-4,CCCCc1ncc(/C=C(\Cc2cccs2)C(=O)O)n1Cc1ccc(C(=O)O)cc1,OROAFUQRIXKEMV-LDADJPATSA-N,-3.72
decanal,,CCCCCCCCCC=O,KSMVZQYAVGTKIV-UHFFFAOYSA-N,-3.725525503
Patchoulialcohol,,C[C@H]1CCC2(O)C(C)(C)C3CC[C@@]2(C)C1C3,GGHMUJBZYLPWFD-DUNKBJDJSA-N,-3.72590382
iron(+3) cation; oxygen(-2) anion,,[O--].[O--].[O--].[Fe+3].[Fe+3],LIKBJVNGSGBSGK-UHFFFAOYSA-N,-3.726148307
1-chloro-4-(trifluoromethyl)benzene,,FC(F)(F)c1ccc(Cl)cc1,QULYNCCPRWKEMF-UHFFFAOYSA-N,-3.727695225
Irbesartan,CAS138402-11-6,CCCCC1=NC2(CCCC2)C(=O)N1Cc1ccc(-c2ccccc2-c2nnn[nH]2)cc1,YOSHYTLCDANDAN-UHFFFAOYSA-N,-3.73
biphenyl-4-ylacetic acid;  4-biphenylacetic  acid,,OC(=O)CC1=CC=C(C=C1)C2=CC=CC=C2,QRZAKQDHEVVFRX-UHFFFAOYSA-N,-3.73
3-benzoyl-1-butanoyloxymethyl-5-fluorouracil,,CCCC(=O)OCN1C=C(F)C(=O)N(C1=O)C(=O)C2=CC=CC=C2,WJZCANSESVPVMM-UHFFFAOYSA-N,-3.73
amifloxacin,,CNN1C=C(C(O)=O)C(=O)C2=C1C=C(N3CCN(C)CC3)C(=C2)F,RUXPNBWPIRDVTH-UHFFFAOYSA-N,-3.73
"6-(2,2-dimethylpropanoyloxy)-2-sulfamoylbenzothiazole",,CC(C)(C)C(=O)OC1=CC2=C(C=C1)N=C(S2)[S](N)(=O)=O,FAZPZNCEAZRGPY-UHFFFAOYSA-N,-3.73
"9H-Pyrido[3,4-B]indole",,C1=CC2=C(C=C1)C1=C(C=NC=C1)N2,AIFRHYZBTHREPW-UHFFFAOYSA-N,-3.73
"1-[[4-(1,3-benzothiazol-2-yl)phenyl]methyl-ethoxyphosphoryl]pyrrolidin-2-one",,CCOP(=O)(CC1=CC=C(C2=NC3=C(C=CC=C3)S2)C=C1)N1CCCC1=O,HTAUUADKDLLMRU-UHFFFAOYSA-N,-3.73
ipt (isoprothiolane),,CC(C)OC(=O)C(C(=O)OC(C)C)=C1SCCS1,UFHLMYOGRXOCSL-UHFFFAOYSA-N,-3.7306
1-heptene,,CCCCCC=C,ZGEGCLOFRBLKSE-UHFFFAOYSA-N,-3.732
"(8R,9S,10R,14S)-13-ethyl-1,2,6,7,8,9,10,11,12,14,15,16-dodecahydrocyclopenta[a]phenanthrene-3,17-dione",,CCC12CC[C@H]3[C@@H](CCC4=CC(=O)CC[C@H]34)[C@@H]1CCC2=O,SBLHOJQRZNGHLQ-YLVOMZDISA-N,-3.732719889
oxyphenbutazone,,CCCCC1C(=O)N(N(C1=O)c2ccc(O)cc2)c3ccccc3,HFHZKZSRXITVMK-UHFFFAOYSA-N,-3.7329
Ibuprofen,CAS15687-27-1,CC(C)Cc1ccc(C(C)C(=O)O)cc1,HEFNNWSXXWATRW-UHFFFAOYSA-N,-3.73
Etomidate,CAS33125-97-2,CCOC(=O)c1cncn1C(C)c1ccccc1,NPUKDXXFDDZOKR-UHFFFAOYSA-N,-3.73
"1-ph-3,5-dime-4-nitrosopyrazole",,Cc1nn(c2ccccc2)c(C)c1N=O,SCHFUNOUOHIHSX-UHFFFAOYSA-N,-3.7355
dioxomolybdenum,,O=[Mo]=O,QXYJCZRRLLQGCR-UHFFFAOYSA-N,-3.739643636
methyl 4-tert-butylbenzoate,,COC(=O)c1ccc(cc1)C(C)(C)C,UPIJOAFHOIWPLT-UHFFFAOYSA-N,-3.739816376
"2-chloro-4-isopropylamino-6-propylamino-1,3,5-triazine",,CCCNC1=NC(=NC(=N1)Cl)NC(C)C,ZVPGYHKLHJKWML-UHFFFAOYSA-N,-3.74
flumequine,,CC1CCC2=CC(=CC3=C2N1C=C(C(O)=O)C3=O)F,DPSPPJIUMHPXMA-UHFFFAOYSA-N,-3.74
2-methylpentane,,CCCC(C)C,AFABGHUZZDYHJO-UHFFFAOYSA-N,-3.74
glybuthiazole,,CC(C)(C)c1sc(N[S](=O)(=O)c2ccc(N)cc2)nn1,DVQVBLBKEXITIK-UHFFFAOYSA-N,-3.74
"furo[3,2-g]chromen-7-one",,O=C1C=CC2=C(C=C3OC=CC3=C2)O1,ZCCUUQDIBDJBTK-UHFFFAOYSA-N,-3.74
2-(9H-fluoren-9-ylmethoxycarbonylamino)-4-methylpentanoic acid,,CC(C)CC(NC(=O)OCC1C2=C(C=CC=C2)C2=C1C=CC=C2)C(=O)O,CBPJQFCAFFNICX-UHFFFAOYSA-N,-3.74
1-methylnaphthalene,,Cc1cccc2ccccc12,QPUYECUOLPXSFR-UHFFFAOYSA-N,-3.7413
4-(4-hydroxyphenyl)phenol,,Oc1ccc(cc1)c2ccc(O)cc2,VCCBEIPGXKNHFW-UHFFFAOYSA-N,-3.742373099
"1,4-diethyl 2-{[4-({4-[(1,4-diethoxy-1,4-dioxobutan-2-yl)amino]cyclohexyl}methyl)cyclohexyl]amino}butanedioate",,CCOC(=O)CC(NC1CCC(CC1)CC2CCC(CC2)NC(CC(=O)OCC)C(=O)OCC)C(=O)OCC,VLJCQQPKCXJKKM-UHFFFAOYSA-N,-3.744077739
diuron,,CN(C)C(=O)Nc1ccc(Cl)c(Cl)c1,XMTQQYYKAHVGBJ-UHFFFAOYSA-N,-3.7443
deoxycorticosterone,,C[C@]12CC[C@H]3[C@@H](CCC4=CC(=O)CC[C@]34C)[C@@H]1CC[C@@H]2C(=O)CO,ZESRJSPZRDMNHY-YFWFAHHUSA-N,-3.7446
dicopper hydroxide phosphate,,[OH-].[Cu++].[Cu++].[O-][P]([O-])([O-])=O,WCMHCPWEQCWRSR-UHFFFAOYSA-J,-3.745054809
"(2E)-3,7-dimethylocta-2,6-dien-1-yl formate",,CC(C)=CCC\C(C)=C\COC=O,FQMZVFJYMPNUCT-YRNVUSSQSA-N,-3.746150762
m-diethylbenzene,,CCc1cccc(CC)c1,AFZZYIJIWUTJFO-UHFFFAOYSA-N,-3.7476
pentachlorophenoxyacetic  acid,,OC(=O)COC1=C(Cl)C(=C(Cl)C(=C1Cl)Cl)Cl,OBEUDXCKNSDQIL-UHFFFAOYSA-N,-3.75
naproxen-derivat 3 d,,COC1=CC=C2C=C(C=CC2=C1)C(C)C(=O)OCCOC(=O)C(N)CC3=CC=CC=C3,MZAKIGQNEBYEKL-UHFFFAOYSA-N,-3.75
"1,4-diethylbenzene",,c1cc(CC)ccc1CC,DSNHSQKRULAAEI-UHFFFAOYSA-N,-3.75
deoxycorticosterone,,C1C(=O)C=C2CCC3C4CCC(C(=O)CO)C4(C)CCC3C2(C)C1,ZESRJSPZRDMNHY-UHFFFAOYSA-N,-3.75
"6a,7,8,9-tetrahydro-5H-pyrrolo[2,1-c][1,4]benzodiazepine-6,11-dione",,O=C1NC2=C(C=CC=C2)C(=O)N2CCCC12,MXBNEEHQIDLPLQ-UHFFFAOYSA-N,-3.75
diphenylnitrosamine,,O=NN(c1ccccc1)c2ccccc2,UBUCNCOMADRQHX-UHFFFAOYSA-N,-3.7531
"(2E)-3,7-dimethylocta-2,6-dien-1-yl acetate",,CC(=O)OC\C=C(C)/CCC=C(C)C,HIGQPQRQIQDZMP-FLIBITNWSA-N,-3.754953216
hexyl 2-methylprop-2-enoate,,CCCCCCOC(=O)C(C)=C,LNCPIMCVTKXXOY-UHFFFAOYSA-N,-3.755421034
"sodium 2-{2,5-dichloro-4-[(E)-2-(2-methyl-1H-indol-3-yl)diazen-1-yl]benzenesulfonamido}ethane-1-sulfonate",,[Na+].CC\1=Nc2ccccc2C1=N/Nc3cc(Cl)c(cc3Cl)[S](=O)(=O)NCC[S]([O-])(=O)=O,IQWBFKOZXPTGNT-YFZNFVDXSA-M,-3.756179517
4-[4-(hydrazinesulfonyl)phenoxy]benzene-1-sulfonohydrazide,,NN[S](=O)(=O)c1ccc(Oc2ccc(cc2)[S](=O)(=O)NN)cc1,NBOCQTNZUPTTEI-UHFFFAOYSA-N,-3.758489195
butylbenzene,,CCC(C)c1ccccc1,ZJMWRROPUADPEA-UHFFFAOYSA-N,-3.758607848
4-[(E)-2-phenyldiazen-1-yl]aniline,,Nc1ccc(cc1)N=Nc2ccccc2,QPQKUYVSJWQSDY-UHFFFAOYSA-N,-3.759703076
isopropyl (1-(4-nitro)phenylsulfonyl) cyclobutan,,CC(C)OC(=O)C1(CCC1)[S](=O)(=O)c2ccc(cc2)[N+]([O-])=O,XWDINLQQGHPOQQ-UHFFFAOYSA-N,-3.7599
2-chloro-3-phenylsulfonamidopyridine,,ClC1=NC=CC=C1N[S](=O)(=O)C2=CC=CC=C2,YWIHZYXECGNFTQ-UHFFFAOYSA-N,-3.76
"1-(2,6-difluorophenyl)-1h,3h-thiazolo[3,4-a]benzimidazole;  nsc 625487",,FC1=C(C2SCC3=NC4=C(C=CC=C4)[N]23)C(=CC=C1)F,AMLBAOPYPUXEQF-UHFFFAOYSA-N,-3.76
avitriptan;  bms-180048,,COC1=C(N=CN=C1)N2CCN(CC2)CCC3=C[NH]C4=C3C=C(C[S](=O)(=O)N(C)C)C=C4,PJMZTMZELVDRNJ-UHFFFAOYSA-N,-3.76
"6-chloro-N'-ethyl-N-propan-2-yl-1,3,5-triazine-2,4-diamine",,CCNC1=NC(Cl)=NC(NC(C)C)=N1,MXWJVTOOROXGIU-UHFFFAOYSA-N,-3.76
Androstanedione  ,,CC12CCCC1C1CCC3CC(=O)C(=O)CC3(C)C1CC2,BVOKWOPQCAWSLV-UHFFFAOYSA-N,-3.76
diazinon,PubChemCID3017,CCOP(=S)(OCC)OC1=NC(=NC(=C1)C)C(C)C,FHIVAFMUCKRCQO-UHFFFAOYSA-N,-3.76
"1,1'-oxybis(3-methylbutane)",,CC(C)CCOCCC(C)C,AQZGPSLYZOOYQP-UHFFFAOYSA-N,-3.760107067
dodecanedioic acid,,OC(=O)CCCCCCCCCCC(O)=O,TVIDDXQYHWJXFK-UHFFFAOYSA-N,-3.76024149
1-methyl-2-isopropylbenzene,,CC(C)c1ccccc1C,WWRCMNKATXZARA-UHFFFAOYSA-N,-3.7606
benazolin-ethyl,,CCOC(=O)CN1C(=O)Sc2cccc(Cl)c12,WQRCEBAZAUAUQC-UHFFFAOYSA-N,-3.762
2-methylnaphthalene,,Cc1ccc2ccccc2c1,QIMMUPPBPVKWKM-UHFFFAOYSA-N,-3.762
chlorfenprop methyl,,COC(=O)C(Cl)Cc1ccc(Cl)cc1,YJKIALIXRCSISK-UHFFFAOYSA-N,-3.7655
flusilazole,,C[Si](Cn1cncn1)(c2ccc(F)cc2)c3ccc(F)cc3,FQKUGOMFVDPBIZ-UHFFFAOYSA-N,-3.7665
,CHEMBL1631014,C[C@H](Oc1ccc(cc1C(=O)N2Cc3cccc(C)c3C2)S(=O)(=O)C)C(F)(F)F,RZTNZANVFQAZHA-ZDUSSCGKSA-N,-3.767213335
,CHEMBL2164573,CCN(CCO)C(=O)c1cc2cccnn2c1Cc3cccc(c3)C(F)(F)F,UVOYWFRWZSDKNQ-UHFFFAOYSA-N,-3.769285533
2-heptylcyclopentan-1-one,,CCCCCCCC1CCCC1=O,PJXHBTZLHITWFX-UHFFFAOYSA-N,-3.769441651
p-isopropyltoluene,,c1cc(C)ccc1C(C)C,HFPZCAJZSCWRBC-UHFFFAOYSA-N,-3.77
betamethasone,,C1=CC(=O)C=C2CCC3C4CC(C)C(O)(C(=O)CO)C4(C)CC(O)C3(F)C12C,UREBDLICKHMUKA-UHFFFAOYSA-N,-3.77
4-(methyl-octylamino)diazenylbenzoic acid,,CCCCCCCCN(C)N=NC1=CC=C(C(=O)O)C=C1,UQEZFSBOXDPODJ-UHFFFAOYSA-N,-3.77
Betamethasone  ,,CCC(=O)OCC(=O)C1(OC(=O)CC)C(C)CC2C3CCC4=CC(=O)C=CC4(C)C3(F)C(O)CC21C,CIWBQSYVNNPZIQ-UHFFFAOYSA-N,-3.77
cyclooctene,,C1CCC\C=C/CC1,URYYVOIYTNXXBN-UPHRSURJSA-N,-3.770339988
Betamethasone,,C[C@H]1C[C@H]2[C@@H]3CCC4=CC(=O)C=C[C@]4(C)[C@@]3(F)[C@@H](O)C[C@]2(C)[C@@]1(O)C(=O)CO,UREBDLICKHMUKA-DVTGEIKXSA-N,-3.7709815
,CHEMBL1682830,CCN1CCOc2cc(COc3ccccc3)cnc12,BNPYZSLINHTRBZ-UHFFFAOYSA-N,-3.771802847
"4,7,7-trimethylbicyclo[3.1.1]hept-3-ene",,CC1=CCC2CC1C2(C)C,GRWFGVWFFZKLTI-UHFFFAOYSA-N,-3.772570424
"1,2-dichloro-4-methylbenzene",,Cc1ccc(Cl)c(Cl)c1,WYUIWKFIFOJVKW-UHFFFAOYSA-N,-3.775545726
Nonadecanoic acid,,CCCCCCCCCCCCCCCCCCC(O)=O,ISYWECDDZWTKFF-UHFFFAOYSA-N,-3.775990335
"2,4-d, butyl ester",,CCCCOC(=O)COc1ccc(Cl)cc1Cl,UQMRAFJOBWOFNS-UHFFFAOYSA-N,-3.78
methyclothiazide,,CN1C(CCl)NC2=C(C=C(C(=C2)Cl)[S](N)(=O)=O)[S]1(=O)=O,CESYKOGBSMNBPD-UHFFFAOYSA-N,-3.78
naproxen ester vd; naproxen [n-(carbamoylmethyl)-n-(methyl)carbamoyl]methyl ester,,COC1=CC=C2C=C(C=CC2=C1)C(C)C(=O)OCC(=O)N(C)CC(N)=O,FQKXIOAPTXUHEK-UHFFFAOYSA-N,-3.78
s-(-)-nadifloxacin;  jinofloxacin,,CC1CCC2=C(N3CCC(O)CC3)C(=CC4=C2N1C=C(C(O)=O)C4=O)F,JYJTVFIEFKZWCJ-UHFFFAOYSA-N,-3.78
calcium carbonate,,[Ca++].[O-]C([O-])=O,VTYYLEPIZMXCLO-UHFFFAOYSA-L,-3.780265245
metolazone,,CC1Nc2cc(Cl)c(cc2C(=O)N1c3ccccc3C)[S](N)(=O)=O,AQCHWTWZEMGIFD-UHFFFAOYSA-N,-3.783
potassium dodecyl hydrogen phosphate,,[K+].CCCCCCCCCCCCO[P](O)([O-])=O,MJHORFXTDAGQEU-UHFFFAOYSA-M,-3.784486057
ipazine,,CCN(CC)c1nc(Cl)nc(NC(C)C)n1,OWYWGLHRNBIFJP-UHFFFAOYSA-N,-3.7849
"(4E)-3-methyl-5-(2,2,3-trimethylcyclopent-3-en-1-yl)pent-4-en-2-ol",,CC(O)C(C)\C=C/C1CC=C(C)C1(C)C,RNLHVODSMDJCBR-VURMDHGXSA-N,-3.786028703
"1,11-undecanedicarboxylic acid;  tridecanedioic  acid;  brassylic  acid",,OC(=O)CCCCCCCCCCCC(O)=O,DXNCZXXFRKPEPY-UHFFFAOYSA-N,-3.79
"1-Methyl-9H-pyrido[3,4-b]indole",,CC1=NC=CC2=C1NC1=C2C=CC=C1,PSFDQSOCUJVVGF-UHFFFAOYSA-N,-3.79
3-(4-tert-butylphenyl)-2-methylpropanal,,CC(Cc1ccc(cc1)C(C)(C)C)C=O,SDQFDHOLCGWZPU-UHFFFAOYSA-N,-3.791782061
"1,3-dichloro-2-methylbenzene",,Cc1c(Cl)cccc1Cl,DMEDNTFWIHCBRK-UHFFFAOYSA-N,-3.791936142
"4,8-dimethyldeca-4,9-dienal",,CC(CC/C=C(C)/CCC=O)C=C,QVEOSYKPYFNQAZ-XYOKQWHBSA-N,-3.79357605
pretilchlor,,CCCOCCN(C(=O)CCl)c1c(CC)cccc1CC,YLPGTOIOYRQOHV-UHFFFAOYSA-N,-3.795
abietic acid,,CC(C)C1=CC2=CC[C@@H]3[C@](C)(CCC[C@@]3(C)C(O)=O)[C@H]2CC1,RSWGJHLUYNHPMX-ONCXSQPRSA-N,-3.7959
"2,4-di-tert-butylphenol",,CC(C)(C)c1ccc(O)c(c1)C(C)(C)C,ICKWICRCANNIBI-UHFFFAOYSA-N,-3.796046333
"1,4-dimethyl benzene-1,4-dicarboxylate",,COC(=O)c1ccc(cc1)C(=O)OC,WOZVHXUHUFLZGK-UHFFFAOYSA-N,-3.796856222
Ambrisentan,CAS177036-94-1,COC(c1ccccc1)(c1ccccc1)C(Oc1nc(C)cc(C)n1)C(=O)O,OUJTZYPIHDYQMC-UHFFFAOYSA-N,-3.8
"5,8-quinolinedione, dioxime",,ON=C1C=CC(=NO)c2ncccc12,SXQRHGCUOZOOAF-UHFFFAOYSA-N,-3.7998
nitrazepam,,[O-][N+](=O)C1=CC=C2NC(=O)CN=C(C3=CC=CC=C3)C2=C1,KJONHKAYOJNZEC-UHFFFAOYSA-N,-3.8
abietic  acid,,CC(C)C1=CC2=CCC3C(C)(CCCC3(C)C(O)=O)C2CC1,RSWGJHLUYNHPMX-UHFFFAOYSA-N,-3.8
(+)-pancratistatin,,OC1C(O)C(O)C2C(NC(=O)C3=C(O)C4=C(OCO4)C=C23)C1O,VREZDOWOLGNDPW-UHFFFAOYSA-N,-3.8
temafloxacin,,CC1CN(CCN1)C2=CC3=C(C=C2F)C(=O)C(=CN3C4=C(F)C=C(F)C=C4)C(O)=O,QKDHBVNJCZBTMR-UHFFFAOYSA-N,-3.8
nimetazepam,,c1c(N(=O)(=O))cc2C(c3ccccc3)=NCC(=O)N(C)c2c1,GWUSZQUVEVMBPI-UHFFFAOYSA-N,-3.8
"2,5-dibromobenzaldehyde",,Brc1ccc(Br)c(C=O)c1,BQBXKWGMPUCSQV-UHFFFAOYSA-N,-3.8003
ethyl nonanoate,,CCCCCCCCC(=O)OCC,BYEVBITUADOIGY-UHFFFAOYSA-N,-3.8007
perfluidone,,Cc1cc(ccc1N[S](=O)(=O)C(F)(F)F)[S](=O)(=O)c2ccccc2,WHTBVLXUSXVMEV-UHFFFAOYSA-N,-3.8009
Clopidogrel Bisulfate,CAS120202-66-6,COC(=O)CN1CCc2sc(-c3ccccc3Cl)cc2C1.O=S(=O)(O)O,LKQGSDYWJCUZTR-UHFFFAOYSA-N,-3.8
"(3E)-4-(2,5,6,6-tetramethylcyclohex-2-en-1-yl)but-3-en-2-one",,C[C@@H]1CC=C(C)[C@H](\C=C\C(C)=O)C1(C)C,JZQOJFLIJNRDHK-UZPJXDOOSA-N,-3.802676912
forchlorfenuron,,Clc1cc(NC(=O)Nc2ccccc2)ccn1,GPXLRLUVLMHHIK-UHFFFAOYSA-N,-3.8028
"2,2,6-trimethylcyclohexyl propanoate",,CCC(=O)OC1C(C)CCCC1(C)C,JFBKOWCEVLNQHV-UHFFFAOYSA-N,-3.803181261
Pentazocine,CAS359-83-1,CC(C)=CCN1CC[C@@]2(C)c3cc(O)ccc3C[C@@H]1[C@@H]2C,VOKSWYLNZZRQPF-GDIGMMSISA-N,-3.8
,CHEMBL2180018,COc1cccc(c1)c2cccc(c2)C3(C)N=C(C)C(=N3)N,BEYGOLPVUQKUTI-UHFFFAOYSA-N,-3.803793515
Oxazepam,CAS604-75-1,O=C1Nc2ccc(Cl)cc2C(c2ccccc2)=NC1O,ADIMAYPTOBDMTL-UHFFFAOYSA-N,-3.8
"3,7-dimethyloctanal",,CC(C)CCCC(C)CC=O,UCSIFMPORANABL-UHFFFAOYSA-N,-3.806483007