Name,ID,SMILES,inchi,LogS
,CHEMBL2348851,COc1ccc(cc1OC)c2cnc3[nH]cc(C(=O)NC(C)CO)c3n2,IVTZBZBZVFLWIS-UHFFFAOYSA-N,-5.250601069
calcium bis(metaphosphate),,[Ca++].O[PH]([O-])=O.O[PH]([O-])=O,JBCDXVJTWRWCSR-UHFFFAOYSA-L,-5.253149755
dicopper(2+) ion chloride trihydroxide,,[OH-].[OH-].[OH-].[Cl-].[Cu++].[Cu++],SKQUUKNCBWILCD-UHFFFAOYSA-J,-5.253985152
n-hexylbenzene,,CCCCCCc1ccccc1,LTEQMZWBSYACLV-UHFFFAOYSA-N,-5.2551
,CHEMBL2414325,CNC(=O)c1cccn2cc(nc12)c3cccc(c3)c4cncc(OC)c4,FUXXIONUWXKZIU-UHFFFAOYSA-N,-5.259337865
kepone,,ClC1(Cl)C2(Cl)C3(Cl)C4(Cl)C(=O)C5(Cl)C3(Cl)C1(Cl)C5(Cl)C24Cl,LHHGDZSESBACKH-UHFFFAOYSA-N,-5.2594
tetramethrin; phthaltrin,,CC(C)=CC1C(C(=O)OCN2C(=O)C3=C(CCCC3)C2=O)C1(C)C,CXBMCYHAMVGWJQ-UHFFFAOYSA-N,-5.26
"2,3,4,5-tetrachloroanisole",,COc1cc(Cl)c(Cl)c(Cl)c1Cl,FUUHMSUPRUNWRQ-UHFFFAOYSA-N,-5.2605
3-hydroxy-N-(4-methoxyphenyl)-2-naphthamide,,COc1ccc(NC(=O)c2cc3ccccc3cc2O)cc1,UIXFPIHXQQZAGX-UHFFFAOYSA-N,-5.263224655
o-terphenyl,,c1ccc(cc1)c2ccccc2c3ccccc3,OIAQMFOKAXHPNH-UHFFFAOYSA-N,-5.2692
testosterone  phenylpropionate,,CC12CCC3C(CCC4=CC(=O)CCC34C)C1CCC2OC(=O)CCC5=CC=CC=C5,HHSXYDOROIURIP-UHFFFAOYSA-N,-5.27
dihydroergocristine,,CC(C)C1(NC(=O)C2CC3C(CC4=C[NH]C5=C4C3=CC=C5)N(C)C2)OC6(O)C7CCCN7C(=O)C(CC8=CC=CC=C8)N6C1=O,DEQITUUQPICUMR-UHFFFAOYSA-N,-5.27
arildone,,CCC(=O)C(CCCCCCOC1=C(Cl)C=C(OC)C=C1)C(=O)CC,DIXRMZGIJNJUGL-UHFFFAOYSA-N,-5.27
"7-(3-aminoazetidin-1-yl)-1-cyclopropyl-6,8-difluoro-4-oxoquinoline-3-carboxylic acid",,NC1CN(C2=C(F)C3=C(C=C2F)C(=O)C(C(=O)O)=CN3C2CC2)C1,IKZBNCORGKYEDZ-UHFFFAOYSA-N,-5.27
2-butyloctan-1-ol,,CCCCCCC(CO)CCCC,XMVBHZBLHNOQON-UHFFFAOYSA-N,-5.270303761
medrogestone,,CC(=O)C1(C)CCC2C3C=C(C)C4=CC(=O)CCC4(C)C3CCC12C,HCFSGRMEEXUOSS-UHFFFAOYSA-N,-5.2721
Cobaltous stearate,,[Co++].CCCCCCCCCCCCCCCCCC([O-])=O.CCCCCCCCCCCCCCCCCC([O-])=O,AMFIJXSMYBKJQV-UHFFFAOYSA-L,-5.273398705
,CHEMBL2414322,NC(=O)c1cccn2cc(nc12)c3cccc(c3)c4cncc(OC[C@H]5CCCO5)c4,DHLJXELTUGVBOO-LJQANCHMSA-N,-5.275419297
equilin,,C[C@]12CC[C@H]3C(=CCc4cc(O)ccc34)[C@@H]1CCC2=O,WKRLQDKEXYKHJB-HFTRVMKXSA-N,-5.2795
methyltestosterone  acetate,,CC(=O)OC1(C)CCC2C3CCC4=CC(=O)CCC4(C)C3CCC12C,RLIONZRKXHAVFB-UHFFFAOYSA-N,-5.28
"2,5,9-trimethylpyrano[5,6-f][1]benzoxol-7-one",,CC1=CC2=CC3=C(OC(=O)C=C3C)C(C)=C2O1,FMHHVULEAZTJMA-UHFFFAOYSA-N,-5.28
"2,4'-dichlorobiphenyl",,Clc1ccc(cc1)c2ccccc2Cl,UFNIBRDIUNVOMX-UHFFFAOYSA-N,-5.2803
2-ethylhexyl diphenyl phosphate,,CCCCC(CC)CO[P](=O)(Oc1ccccc1)Oc2ccccc2,CGSLYBDCEGBZCG-UHFFFAOYSA-N,-5.2804
fluazifop-p-butyl,,CCCCOC(=O)[C@@H](C)Oc1ccc(Oc2ccc(cn2)C(F)(F)F)cc1,VAIZTNZGPYBOGF-CYBMUJFWSA-N,-5.2826
ethion,,CCO[P](=S)(OCC)SCS[P](=S)(OCC)OCC,RIZMRRKBZQXFOY-UHFFFAOYSA-N,-5.2838
Megestrol Acetate,CAS595-33-5,CC(=O)O[C@]1(C(C)=O)CC[C@H]2[C@@H]3C=C(C)C4=CC(=O)CC[C@]4(C)[C@H]3CC[C@@]21C,RQZAXGRLVPAYTJ-GQFGMJRRSA-N,-5.28
1-(4-methoxyphenyl)-2-[(3-methoxyphenyl)sulfanyl]ethan-1-one,,COc1ccc(cc1)C(=O)CSc2cccc(OC)c2,CXSKVBXJDSVPKS-UHFFFAOYSA-N,-5.284725265
"2,4-dichlorobiphenyl",,Clc1ccc(c(Cl)c1)c2ccccc2,WEJZHZJJXPXXMU-UHFFFAOYSA-N,-5.2878
lauronitrile,,CCCCCCCCCCCC#N,VXCUURYYWGCLIH-UHFFFAOYSA-N,-5.289969947
chlorphoxim,,CCO[P](=S)(OCC)O/N=C(C#N)/c1ccccc1Cl,GQKRUMZWUHSLJF-NTCAYCPXSA-N,-5.2917
Estazolam,CAS29975-16-4,Clc1ccc2c(c1)C(c1ccccc1)=NCc1nncn1-2,CDCHDCWJMGXXRH-UHFFFAOYSA-N,-5.29
carbophenothion-methyl,,CO[P](=S)(OC)SCSc1ccc(Cl)cc1,OUCCVXVYGFBXSV-UHFFFAOYSA-N,-5.2939
flumioxazin,,Fc1cc2OCC(=O)N(CC#C)c2cc1N3C(=O)C4=C(CCCC4)C3=O,FOUWCSDKDDHKQP-UHFFFAOYSA-N,-5.2966
copper,,[Cu],RYGMFSIKBFXOCR-UHFFFAOYSA-N,-5.29793824
2-isopropyl naphthalene,,CC(C)c1ccc2ccccc2c1,TVYVQNHYIHAJTD-UHFFFAOYSA-N,-5.298
"2,5-dichlorobiphenyl",,Clc1ccc(Cl)c(c1)c2ccccc2,KKQWHYGECTYFIA-UHFFFAOYSA-N,-5.2993
n-(3-chlorophenyl)anthranilic  acid;  3'-chlorofenamic acid,,OC(=O)C1=CC=CC=C1NC2=CC(=CC=C2)Cl,OVMWPVYEBVFZHM-UHFFFAOYSA-N,-5.3
"4-(6,7-dimethoxyquinazolin-4-yl)piperazine-1-carboxylic acid thiophen-3-ylamide",,COC1=CC2=C(C=C1OC)C(=NC=N2)N3CCN(CC3)C(=O)NC4=CSC=C4,SACBQFMSEKIABM-UHFFFAOYSA-N,-5.3
Triflupromazine,,CN(C)CCCN2c1ccccc1Sc3ccc(C(F)(F)F)cc23,XSCGXQMFQXDFCW-UHFFFAOYSA-N,-5.3
,CHEMBL1209822,CS(=O)(=O)c1ccccc1C(CNS(=O)(=O)c2ccc(cc2)C(F)(F)F)N3CCCCCC3,IIFLTBDKTBBQNV-UHFFFAOYSA-N,-5.300639441
,CHEMBL2335911,C[C@@H](NC(=O)C)c1ccc(Nc2ncc3cc(c(C)cc3n2)c4ccncc4)cc1,HHCGZHIZMMSLLF-MRXNPFEDSA-N,-5.300724231
,CHEMBL2335907,COc1cc(cc2cnc(Nc3ccc(cc3)[C@@H](C)NC(=O)C)nc12)c4ccncc4,VTMWOMKMTOKMTQ-OAHLLOKOSA-N,-5.300730722
,CHEMBL1682819,Fc1ccc(COc2ccc3C(=O)CCOc3c2)cc1,NQSKQOBQOSSMQQ-UHFFFAOYSA-N,-5.300734601
,CHEMBL1783274,CCNC(=O)c1nnc2c(c(F)ccc2c1N)c3cc(OC)ccc3OC,BGGCZORPGAXQJX-UHFFFAOYSA-N,-5.300753321
,CHEMBL3632789,Cc1c[nH]c(n1)c2nc(nc3nc(N)c(C#N)c(N)c23)C(C)(C)C,AJLMNTOBSPZDIL-UHFFFAOYSA-N,-5.30075433
,CHEMBL2164047,Fc1ccc(CCN2C(C(=O)NCc3ccc(OC(F)(F)F)cc3)c4ccccc4C2=O)nc1,BTTKDIOGEICZEV-UHFFFAOYSA-N,-5.300769622
oxocopper,,O=[Cu],QPLDLSVMHZLSFG-UHFFFAOYSA-N,-5.305116664
strontium 4-[(5-chloro-4-methyl-2-sulphonatophenyl)azo]-3-hydroxy-2-naphthoate (1:1),,[Sr++].Cc1c(Cl)cc(cc1[S](O)(=O)=O)N=Nc2c([O-])c(cc3ccccc23)C([O-])=O,FTMYMYGLEZHQOM-UHFFFAOYSA-L,-5.306582846
2-{methyl[(nonafluorobutyl)sulfonyl]amino}ethyl acrylate,,CN(CCOC(=O)C=C)[S](=O)(=O)C(F)(F)C(F)(F)C(F)(F)C(F)(F)F,KEMCLRGAIUJRAN-UHFFFAOYSA-N,-5.308746093
2-hydroxyanthraquinone,,Oc1ccc2C(=O)c3ccccc3C(=O)c2c1,GCDBEYOJCZLKMC-UHFFFAOYSA-N,-5.3093
"O,O,S-tris(4-aminophenyl) thiophosphate",,Nc1ccc(O[P](=S)(Oc2ccc(N)cc2)Oc3ccc(N)cc3)cc1,MBUAAMOJATXYKR-UHFFFAOYSA-N,-5.309407137
,CHEMBL1783270,COc1ccc(OC)c(c1)c2cccc3c(N)c4C(=O)N(Cc4nc23)C5CC5,HYXFNGLXNMLTNQ-UHFFFAOYSA-N,-5.309501064
"1-cyclopropyl-6,8-difluoro-7-(3-methylaminoazetidin-1-yl)-4-oxoquinoline-3-carboxylic acid",,CNC1CN(C2=C(F)C3=C(C=C2F)C(=O)C(C(=O)O)=CN3C2CC2)C1,QSNYNWOQOIJCFV-UHFFFAOYSA-N,-5.31
dibenzo-p-dioxin,,O1c2ccccc2Oc3ccccc13,NFBOHOGPQUYFRF-UHFFFAOYSA-N,-5.3106
tris[oxalato(2-)]dilutetium,,[Lu+3].[Lu+3].[O-]C(=O)C([O-])=O.[O-]C(=O)C([O-])=O.[O-]C(=O)C([O-])=O,WBXXVIQNIMIONY-UHFFFAOYSA-H,-5.311038629
N-(4-ethoxyphenyl)-3-hydroxy-2-naphthamide,,CCOc1ccc(NC(=O)c2cc3ccccc3cc2O)cc1,FYJKEJZGNQVNLC-UHFFFAOYSA-N,-5.311540545
propan-2-ylcyclohexane,,CC(C)C1CCCCC1,GWESVXSMPKAFAS-UHFFFAOYSA-N,-5.311626594
tonalid,,CC1CC(C)(C)c2cc(C(C)=O)c(C)cc2C1(C)C,DNRJTBAOUJJKDY-UHFFFAOYSA-N,-5.3154
stanolone formate,,CC12CCC(=O)CC1CCC3C4CCC(OC=O)C4(C)CCC23,ZQSXNBHXKJQHBH-UHFFFAOYSA-N,-5.32
2-carboxy-7-methylthioxanthone; 7-methylthioxanthone-2-carboxylic; 7-methylsulfanyl-9-oxo-9h-xanthene-2-carboxylic acid acid,,CSC1=CC=C2OC3=C(C=C(C=C3)C(O)=O)C(=O)C2=C1,GEMHNGLORSISHO-UHFFFAOYSA-N,-5.32
7-(3-aminoazetidin-1-yl)-1-cyclopropyl-6-fluoro-4-oxoquinoline-3-carboxylic acid,,NC1CN(C2=CC3=C(C=C2F)C(=O)C(C(=O)O)=CN3C2CC2)C1,CTJMNBROBOZHAP-UHFFFAOYSA-N,-5.32
"N,N'-(3,3'-dimethylbiphenyl-4,4'-diyl)bis(3-oxobutanamide)",,CC(=O)CC(=O)Nc1ccc(cc1C)c2ccc(NC(=O)CC(C)=O)c(C)c2,CRRLDLPBQWRVGN-UHFFFAOYSA-N,-5.325018234
,CHEMBL1783259,COc1ccc(OC)c(c1)c2cccc3c(N)c(nnc23)C(=O)NC(C)C,YTPPBAYYHIGVLQ-UHFFFAOYSA-N,-5.327616624
tetradecanoic acid,,CCCCCCCCCCCCCC(O)=O,TUNFSRHWOTWDNC-UHFFFAOYSA-N,-5.3293
7-(3-amino-3-methylazetidin-1-yl)-8-chloro-1-cyclopropyl-6-fluoro-4-oxoquinoline-3-carboxylic acid,,CC1(N)CN(C2=C(Cl)C3=C(C=C2F)C(=O)C(C(=O)O)=CN3C2CC2)C1,DUNZFXZSFJLIKR-UHFFFAOYSA-N,-5.33
(ethoxymethoxy)cyclododecane,,CCOCOC1CCCCCCCCCCC1,VQNUNMBDOKEZHS-UHFFFAOYSA-N,-5.335319968
"1,3,3-trimethyl-2-oxabicyclo[2.2.2]octane; 1-methyl-4-(prop-1-en-2-yl)cyclohex-1-ene; 2,6,6-trimethylbicyclo[3.1.1]hept-2-ene",,CC(=C)C1CCC(=CC1)C.CC2=CCC3CC2C3(C)C.CC45CCC(CC4)C(C)(C)O5,YZYRWEREXOLDRZ-UHFFFAOYSA-N,-5.335685932
,CHEMBL1783245,CCCNC(=O)c1nnc2c(CC(C)C)cccc2c1N,OXDLZFDSMXMUKS-UHFFFAOYSA-N,-5.336952959
"acenaphthylene, 1,2-dihydro-5-nitro-",,[O-][N+](=O)c1ccc2CCc3cccc1c23,CUARLQDWYSRQDF-UHFFFAOYSA-N,-5.3403
{2-hydroxy-3-[(9Z)-octadec-9-enoyloxy]propoxy}boronic acid 2-hydroxy-3-{[hydroxy({2-hydroxy-3-[(9Z)-octadec-9-enoyloxy]propoxy})boranyl]oxy}propyl (9Z)-octadec-9-enoate 3-{[bis({2-hydroxy-3-[(9Z)-octadec-9-enoyloxy]propoxy})boranyl]oxy}-2-hydroxypropyl (9Z)-octadec-9-enoate,,CCCCCCCC\C=C/CCCCCCCC(=O)OCC(O)COB(O)O.CCCCCCCC\C=C/CCCCCCCC(=O)OCC(O)COB(O)OCC(O)COC(=O)CCCCCCC\C=C/CCCCCCCC.CCCCCCCC\C=C/CCCCCCCC(=O)OCC(O)COB(OCC(O)COC(=O)CCCCCCC\C=C/CCCCCCCC)OCC(O)COC(=O)CCCCCCC\C=C/CCCCCCCC,VBCPUMZLCRUHTJ-VVUJETCRSA-N,-5.345705158
methoprene,,COC(C)(C)CCCC(C)C\C=C\C(C)=C\C(=O)OC(C)C,NFGXHKASABOEEW-LDRANXPESA-N,-5.3459
Cobaltous 2-ethylhexanoate,,[Co++].CCCCC(CC)C([O-])=O.CCCCC(CC)C([O-])=O,QAEKNCDIHIGLFI-UHFFFAOYSA-L,-5.347977516
daimuron,,Cc1ccc(NC(=O)NC(C)(C)c2ccccc2)cc1,NNYRZQHKCHEXSD-UHFFFAOYSA-N,-5.3495
"2,3-dichlorobiphenyl",,Clc1cccc(c2ccccc2)c1Cl,XOMKZKJEJBZBJJ-UHFFFAOYSA-N,-5.3498
stanolone  acetate,,CC(=O)OC1CCC2C3CCC4CC(=O)CCC4(C)C3CCC12C,ILCTUFVQFCIIDS-UHFFFAOYSA-N,-5.35
megestrol_acetate,,C1C(=O)C=C2C(C)=CC3C4CCC(C(=O)C)(OC(=O)C)C4(C)CCC3C2(C)C1,RQZAXGRLVPAYTJ-UHFFFAOYSA-N,-5.35
"2-(2H-1,2,3-benzotriazol-2-yl)-4-methylphenol",,Cc1ccc(O)c(c1)n2nc3ccccc3n2,MCPKSFINULVDNX-UHFFFAOYSA-N,-5.352666728
"isopropyl-4,4'-dichlorobenzilate",,CC(C)OC(=O)C(O)(c1ccc(Cl)cc1)c2ccc(Cl)cc2,AXGUBXVWZBFQGA-UHFFFAOYSA-N,-5.3544
1-methyl-4-(propan-2-yl)cyclohexane,,CC1CCC(CC1)C(C)C,CFJYNSNXFXLKNS-UHFFFAOYSA-N,-5.354573108
vinyl laurate,,CCCCCCCCCCCC(=O)OC=C,GLVVKKSPKXTQRB-UHFFFAOYSA-N,-5.354799685
"1,4-dichloronaphthalene",,Clc1ccc(Cl)c2ccccc12,JDPKCYMVSKDOGS-UHFFFAOYSA-N,-5.3576
4'-((6-hydroxy-m-tolyl)azo)acetanilide,,CC(=O)Nc1ccc(N\N=C\2C=C(C)C=CC2=O)cc1,ZGLBGXHBFHCOAF-NBVRZTHBSA-N,-5.358
ZIRCONIUM,,[Zr],QCWXUUIWCKQGHC-UHFFFAOYSA-N,-5.35804912
"N,N',N'',N'''-tetrakis(4,6-bis(butyl-(N-methyl-2,2,6,6-tetramethylpiperidin-4-yl)amino)triazin-2-yl)-4,7-diazadecane-1,10-diamine",,CCCCN(C1CC(C)(C)N(C)C(C)(C)C1)c2nc(NCCCN(CCN(CCCNc3nc(nc(n3)N(CCCC)C4CC(C)(C)N(C)C(C)(C)C4)N(CCCC)C5CC(C)(C)N(C)C(C)(C)C5)c6nc(nc(n6)N(CCCC)C7CC(C)(C)N(C)C(C)(C)C7)N(CCCC)C8CC(C)(C)N(C)C(C)(C)C8)c9nc(nc(n9)N(CCCC)C%10CC(C)(C)N(C)C(C)(C)C%10)N(CCCC)C%11CC(C)(C)N(C)C(C)(C)C%11)nc(n2)N(CCCC)C%12CC(C)(C)N(C)C(C)(C)C%12,OWXXKGVQBCBSFJ-UHFFFAOYSA-N,-5.359014668
"2,3-dichloronaphthalene",,ClC1=CC2=C(C=CC=C2)C=C1Cl,SKGXUFZRYNGFJS-UHFFFAOYSA-N,-5.36
RTI 24,,CCN2c1cc(Cl)ccc1NC(=O)c3cccnc23 ,ZSFUDSWIVAQKEN-UHFFFAOYSA-N,-5.36
fipronil,,Nc1n(nc(C#N)c1[S](=O)C(F)(F)F)c2c(Cl)cc(cc2Cl)C(F)(F)F,ZOCSXAVNDGMNBV-UHFFFAOYSA-N,-5.3619
etofenamate,,OCCOCCOC(=O)c1ccccc1Nc2cccc(c2)C(F)(F)F,XILVEPYQJIOVNB-UHFFFAOYSA-N,-5.3633
"13-ethyl-3-methoxy-1,4,6,7,8,9,11,12,13,14,15,16-dodecahydro-17H-cyclopenta[a]phenanthren-17-one (non-preferred name)",,CC[C@]12CC[C@H]3[C@@H](CCC4=C3CC=C(C4)OC)[C@@H]1CCC2=O,PQMRKLSVUBRLLQ-XSYGEPLQSA-N,-5.363817292
"(1E,5E,9E)-cyclododeca-1,5,9-triene",,C\1C\C=C/CC\C=C/CC/C=C1,ZOLLIQAKMYWTBR-UDIJVJLMSA-N,-5.365156254
,CHEMBL1783257,COc1ccc(OC)c(c1)c2cccc3c(N)c(nnc23)C(=O)NC4CCC4,QWWZARYPNGYPLG-UHFFFAOYSA-N,-5.366243607
testosterone propionate,,CCC(=O)O[C@H]1CC[C@H]2[C@@H]3CCC4=CC(=O)CC[C@]4(C)[C@H]3CC[C@]12C,PDMMFKSKQVNJMI-BLQWBTBKSA-N,-5.3669
didysprosium trioxide,,[O--].[O--].[O--].[Dy+3].[Dy+3],GEZAXHSNIQTPMM-UHFFFAOYSA-N,-5.367585356
isoxaben,,CCC(C)(CC)c1cc(NC(=O)c2c(OC)cccc2OC)on1,PMHURSZHKKJGBM-UHFFFAOYSA-N,-5.3694
oxythioquinox,,Cc1ccc2nc3SC(=O)Sc3nc2c1,FBQQHUGEACOBDN-UHFFFAOYSA-N,-5.3698
testosterone  propionate,,CCC(=O)OC1CCC2C3CCC4=CC(=O)CCC4(C)C3CCC12C,PDMMFKSKQVNJMI-UHFFFAOYSA-N,-5.37
"4,4'-cyclohexane-1,1-diylbis(2-methylphenol)",,Cc1cc(ccc1O)C2(CCCCC2)c3ccc(O)c(C)c3,SVOBELCYOCEECO-UHFFFAOYSA-N,-5.371522306
"1,4-diiodobenzene",,Ic1ccc(I)cc1,LFMWZTSOMGDDJU-UHFFFAOYSA-N,-5.3723
"N-(5-chloro-2,4-dimethoxyphenyl)-3-hydroxy-2-naphthamide",,COc1cc(OC)c(NC(=O)c2cc3ccccc3cc2O)cc1Cl,XDWATWCCUTYUDE-UHFFFAOYSA-N,-5.377540581
2-[4-[2-[4-[2-(2-methylprop-2-enoyloxy)ethoxy]phenyl]propan-2-yl]phenoxy]ethyl 2-methylprop-2-enoate,,CC(=C)C(=O)OCCOc1ccc(cc1)C(C)(C)c2ccc(OCCOC(=O)C(C)=C)cc2,VIYWVRIBDZTTMH-UHFFFAOYSA-N,-5.379201886
Coumaphos,,CCOP(=S)(OCC)Oc2ccc1oc(=O)c(Cl)c(C)c1c2,SJNIEBAPMPLYAB-UHFFFAOYSA-N,-5.382
coumaphos,,CCO[P](=S)(OCC)Oc1ccc2C(=C(Cl)C(=O)Oc2c1)C,BXNANOICGRISHX-UHFFFAOYSA-N,-5.3835
imibenconazole,,Clc1ccc(CSC(Cn2cncn2)=Nc3ccc(Cl)cc3Cl)cc1,AGKSTYPVMZODRV-UHFFFAOYSA-N,-5.3842
"propane, 1,3-dibromo-2,2-bis(bromomethyl)-",,BrCC(CBr)(CBr)CBr,OYSVBCSOQFXYHK-UHFFFAOYSA-N,-5.3844
propan-2-yl dodecanoate,,CCCCCCCCCCCC(=O)OC(C)C,UJPPXNXOEVDSRW-UHFFFAOYSA-N,-5.38453799
2-hexyldecan-1-ol,,CCCCCCCCC(CO)CCCCCC,XULHFMYCBKQGEE-UHFFFAOYSA-N,-5.384616815
"1,1-bis(tert-butylperoxy)cyclohexane",,CC(C)(C)OOC1(CCCCC1)OOC(C)(C)C,HSLFISVKRDQEBY-UHFFFAOYSA-N,-5.386213837
,CHEMBL2322777,Fc1ccc(c(F)c1)n2ncnc2c3cc4CCOc5ccccc5c4s3,QLOARIPJKPDUBO-UHFFFAOYSA-N,-5.386845616
1-chloro-4-(3-chlorophenoxy)benzene,,Clc1ccc(Oc2cccc(Cl)c2)cc1,HPRGYUWRGCTBAV-UHFFFAOYSA-N,-5.387355317
manganese(3+) ion ammonium (phosphonatooxy)phosphonate,,[NH4+].[Mn+3].[O-][P]([O-])(=O)O[P]([O-])([O-])=O,UHHXUPJJDHEMGX-UHFFFAOYSA-K,-5.392552751
"2,2'-oxybis(5,5-dimethyl-1,3,2-dioxaphosphinane) 2,2'-disulfide",,CC1(C)CO[P](=S)(OC1)O[P]2(=S)OCC(C)(C)CO2,GAUFKBQSTGCCOC-UHFFFAOYSA-N,-5.393383395
2-ethylhexyl 2-{[dibutyl({2-[(2-ethylhexyl)oxy]-2-oxoethyl}sulfanyl)stannyl]sulfanyl}acetate,,CCCCC(CC)COC(=O)CS[Sn](CCCC)(CCCC)SCC(=O)OCC(CC)CCCC,PRIUALOJYOZZOJ-UHFFFAOYSA-L,-5.394286712
2-ethylhexyl 2-{[bis({2-[(2-ethylhexyl)oxy]-2-oxoethyl}sulfanyl)(methyl)stannyl]sulfanyl}acetate,,CCCCC(CC)COC(=O)CS[Sn](C)(SCC(=O)OCC(CC)CCCC)SCC(=O)OCC(CC)CCCC,ACRNSUGLVQJCOM-UHFFFAOYSA-K,-5.394292294
dilanthanum(3+) ion tricarbonate,,[La+3].[La+3].[O-]C([O-])=O.[O-]C([O-])=O.[O-]C([O-])=O,NZPIUJUFIFZSPW-UHFFFAOYSA-H,-5.395892116
captafol,,ClC(Cl)C(Cl)(Cl)SN1C(=O)C2CC=CCC2C1=O,JHRWWRDRBPCWTF-UHFFFAOYSA-N,-5.3968
,CHEMBL2322500,Nc1nc(c2cc3CCOc4ccccc4c3s2)c(s1)c5ccccc5Cl,CQGQYJNSZWNZBN-UHFFFAOYSA-N,-5.396978743
,CHEMBL1209740,CS(=O)(=O)c1ccc(cc1)S(=O)(=O)NCC(N2CCCCCC2)c3ccccc3,NEXATCSBJBFXDV-UHFFFAOYSA-N,-5.397501155
methyl undec-10-enoate,,COC(=O)CCCCCCCCC=C,KISVAASFGZJBCY-UHFFFAOYSA-N,-5.397515352
,CHEMBL1209586,FC(F)(F)c1cccc(c1)S(=O)(=O)NCC(N2CCCCCC2)c3ccccc3,VKTPJBOTXNXDRU-UHFFFAOYSA-N,-5.397592519
,CHEMBL1682789,CN1CCOc2cc(cnc12)C#Cc3ccccc3,VUXRDOLWLFPPTE-UHFFFAOYSA-N,-5.39761128
,CHEMBL2335903,C[C@@H](NC1=CC(=O)CCC1)c2ccc(Nc3ncc4cc(ccc4n3)c5ccncc5)cc2,GNOMSTRWPWTGQT-GOSISDBHSA-N,-5.39762669
,CHEMBL2335895,CC(NC(=O)C)c1ccc(Nc2ncc3cc(ccc3n2)c4ccncc4)cc1,FSHWAYWSRSSJNF-UHFFFAOYSA-N,-5.397627991
,CHEMBL2180015,CC#Cc1ccnc(c1)c2cc(ccc2O)C3(N=C(C)C(=N3)N)C4CC4,FXVJITQJGQEANW-UHFFFAOYSA-N,-5.397629332
,CHEMBL2335904,C[C@@H](NC1=CC(=O)CC1)c2ccc(Nc3ncc4cc(ccc4n3)c5ccncc5)cc2,SLXBPJKJXMRHKG-QGZVFWFLSA-N,-5.397631053
,CHEMBL2335887,COCCC(=O)Nc1ccc(Nc2ncc3cc(ccc3n2)c4ccncc4)cc1,MCKPLODGBCOICL-UHFFFAOYSA-N,-5.39763496
,CHEMBL3632780,CC(C)(C)c1nc(c2ccccc2)c3c(N)c(C#N)c(N)nc3n1,QCJGZTGHUJJPSZ-UHFFFAOYSA-N,-5.397638845
,CHEMBL2164037,COc1cccc2C(=O)N(CCc3ccccn3)C(C(=O)NCc4ccc(OC(F)(F)F)cc4)c12,XMLGSGMGTMYMQE-UHFFFAOYSA-N,-5.397668179
,CHEMBL2164376,FC(F)(F)Oc1ccc(CNC(=O)C2N(C3CC(F)(F)C3)C(=O)c4ccccc24)cc1,IWIMOEAKEUYTRF-UHFFFAOYSA-N,-5.397699237