Name,ID,SMILES,inchi,LogS
"benzenesulfonamide, 4-(mannopyranosylamino)-",,N[S](=O)(=O)c1ccc(NC2O[C@H](CO)[C@@H](O)[C@H](O)[C@@H]2O)cc1,RMCYKIOWPVOBJX-IKQSSVLVSA-N,-0.9801
"phosphoric acid, ethyl dipropyl ester",,CCCO[P](=O)(OCC)OCCC,ANPYQJSSFZGXFE-UHFFFAOYSA-N,-0.9802
disodium 4-[(3-carboxylato-2-hydroxynaphthalen-1-yl)methyl]-3-hydroxynaphthalene-2-carboxylate,,[Na].OC(=O)c1cc2ccccc2c(Cc3c(O)c(cc4ccccc34)C(O)=O)c1O,MQIPLTYHZCWJRA-UHFFFAOYSA-N,-0.980758883
propentofylline,,CCCn1cnc2N(C)C(=O)N(CCCCC(C)=O)C(=O)c12,RBQOQRRFDPXAGN-UHFFFAOYSA-N,-0.9811
Naratriptan,CAS121679-13-8,CNS(=O)(=O)CCC1=CC2=C(C=C1)NC=C2C3CCN(CC3)C,AMKVXSZCKVJAGH-UHFFFAOYSA-N,-0.98
"4(1h)-quinolinone, 1-methyl-",,CN1C=CC(=O)c2ccccc12,CSJAXRKDCCWCSJ-UHFFFAOYSA-N,-0.9818
"isoleucine, n-(2-cyanoethyl)-",,CC[C@H](C)[C@H](NCCC#N)C(O)=O,SYLKPFKVJHIHES-YUMQZZPRSA-N,-0.9818
diammonium carbonate,,N.N.OC(O)=O,PRKQVKDSMLBJBJ-UHFFFAOYSA-N,-0.982660114
"2(5h)-furanone, 5-methylene-",,C=C1OC(=O)C=C1,RNYZJZKPGHQTJR-UHFFFAOYSA-N,-0.9827
isothiocyanatomethane,,CN=C=S,LGDSHSYDSCRFAB-UHFFFAOYSA-N,-0.98322259
ethyl 2-chloro-3-oxobutanoate,,CCOC(=O)C(Cl)C(C)=O,RDULEYWUGKOCMR-UHFFFAOYSA-N,-0.985949247
isopropyl chlorocarbonate,,CC(C)OC(Cl)=O,IVRIRQXJSNCSPQ-UHFFFAOYSA-N,-0.988291129
amisometradine,,CN1C(=O)C=C(N)N(CC(C)=C)C1=O,FXNYSZHYMGWWEZ-UHFFFAOYSA-N,-0.9895
"1-(n,n-diethylsuccinamoyloxymethyl)allopurinol",,CCN(CC)C(=O)CCC(=O)OC[N]1N=CC2=C1N=CNC2=O,ZEXLWXYSVRCCCY-UHFFFAOYSA-N,-0.99
l-dopa pentyl ester,,CCCCCOC(=O)C(N)CC1=CC(=C(O)C=C1)O,WGYXRPGKLMQCLW-UHFFFAOYSA-N,-0.99
N-(5-chloro-2-nitrophenyl)acetamide,,CC(=O)NC1=C(C=CC(=C1)Cl)[N+](=O)[O-],YWANGSCDWBUSBK-UHFFFAOYSA-N,-0.99
methyl n-butyl ether,,CCCCOC,CXBDYQVECUFKRK-UHFFFAOYSA-N,-0.9907
glutamic acid,,NC(CCC(O)=O)C(O)=O,WHUUTDBJXJRKMK-UHFFFAOYSA-N,-0.9916
Vitamin B1 (Thiamine),CAS67-03-8,Cc1ncc(C[n+]2csc(CCO)c2C)c(N)n1.Cl.[Cl-],DPJRMOMPQZCRJU-UHFFFAOYSA-M,-0.99
"sodium 2-amino-4-nitrophenol benzene-1,3-diol 2-amino-4-nitro-6-sulfobenzen-1-olate iron sodium hydride",,[Na].[Na+].[Fe].Nc1cc(ccc1O)[N+]([O-])=O.Nc2cc(cc(c2O)[S]([O-])(=O)=O)[N+]([O-])=O.Oc3cccc(O)c3,KABLUZZLSKUJBA-UHFFFAOYSA-M,-0.994056687
"1,2-bis(2-chloroethoxy)ethane",,ClCCOCCOCCCl,AGYUOJIYYGGHKV-UHFFFAOYSA-N,-0.9955
N'-butanoylbutanehydrazide,,CCCC(=O)NNC(=O)CCC,YSGWZHXCNJWCBN-UHFFFAOYSA-N,-1
"4-Chloro-N,N-dimethylbenzamide",,CN(C)C(=O)C1=CC=C(Cl)C=C1,FARSXMMESQDZMY-UHFFFAOYSA-N,-1
Dihydroneopine,,COC1=C2OC3C(O)CCC4C5CC(=C2C43CCN5C)C=C1,RBOXVHNMENFORY-UHFFFAOYSA-N,-1
"trisodium 7-[[2-[(aminocarbonyl)amino]-4-[(4-amino-6-chloro-1,3,5-triazin-2-yl)amino]phenyl]azo]naphthalene-1,3,5-trisulphonate",,[Na+].[Na+].[Na+].NC(=O)Nc1cc(Nc2nc(N)nc(Cl)n2)ccc1N=Nc3cc4c(cc(cc4[S]([O-])(=O)=O)[S]([O-])(=O)=O)cc3[S]([O-])(=O)=O,DSKGJDYCSBLEMI-UHFFFAOYSA-K,-1.000000587
trimellitic acid,,OC(=O)c1ccc(C(O)=O)c(c1)C(O)=O,ARCGXLSVLAOJQL-UHFFFAOYSA-N,-1.0003
"2,5-dihydroxybenzaldehyde",,Oc1ccc(O)c(C=O)c1,CLFRCXCBWIQVRN-UHFFFAOYSA-N,-1.0004
(E)-N-(pyridin-2-ylmethylidene)hydroxylamine,,O=N\C=C/1NC=CC=C1,VRGKDCRTYBCJTA-AATRIKPKSA-N,-1.000451858
"2-[2-[4-(diethylamino)phenyl]vinyl]-1,3,3-trimethyl-3H-indolium dihydrogen phosphate",,CCN(CC)c1ccc(cc1)C=CC2=[N+](C)c3ccccc3C2(C)C.O[P](O)([O-])=O,DNQYATSEPGGRFT-UHFFFAOYSA-M,-1.000489568
isobutyl formate,,CC(C)COC=O,AVMSWPWPYJVYKY-UHFFFAOYSA-N,-1.0006
n-nitrosohexamethyleneimine,,O=NN1CCCCCC1,UZMVSVHUTOAPTD-UHFFFAOYSA-N,-1.0006
di-i-propylnitrosoamine,,CC(C)N(N=O)C(C)C,AUIKJTGFPFLMFP-UHFFFAOYSA-N,-1.0006
n-nitrosodipropylamine,,CCCN(CCC)N=O,YLKFDHTUAUWZPQ-UHFFFAOYSA-N,-1.0006
3-methyl-3-hexanol,,CCCC(C)(O)CC,KYWJZCSJMOILIZ-UHFFFAOYSA-N,-1.001
"3-methyl-N-nitro-3,6-dihydro-2H-1,3,5-oxadiazin-4-amine",,CN1COCN=C1N[N+]([O-])=O,GAYLOVDFGKQKCJ-UHFFFAOYSA-N,-1.002292328
Nalbuphine Hydrochloride,CAS23277-43-2,Cl.Oc1ccc2c3c1O[C@H]1[C@@H](O)CC[C@@]4(O)[C@@H](C2)N(CC2CCC2)CC[C@]314,YZLZPSJXMWGIFH-BCXQGASESA-N,-1
1-phenoxypropan-2-ol,,CC(O)COc1ccccc1,IBLKWZIFZMJLFL-UHFFFAOYSA-N,-1.003417731
"d-glucose, (aminocarbonyl)hydrazone",,NC(=O)NN=C[C@H](O)[C@@H](O)[C@H](O)[C@H](O)CO,NOUQGOYNEGWDCZ-SLPGGIOYSA-N,-1.0041
5-Ethyl-2-methylpyridine,,CCc1ccc(C)nc1,NTSLROIKFLNUIJ-UHFFFAOYSA-N,-1.004260454
"acrylic acid, 2,3-dibromo-3-chloro-",,OC(=O)C(Br)=C(Cl)Br,WQSDAEICEKYSPL-UHFFFAOYSA-N,-1.0071
Nadolol,CAS42200-33-9,CC(C)(C)NCC(O)COc1cccc2c1C[C@H](O)[C@H](O)C2,VWPOSFSPZNDTMJ-UCWKZMIHSA-N,-1.01
nadolol,,CC(C)(C)NCC(O)COC1=CC=CC2=C1CC(O)C(O)C2,VWPOSFSPZNDTMJ-UHFFFAOYSA-N,-1.01
n-isonicotinoyl-n'-pentanoylhydrazine,,CCCCC(=O)NNC(=O)C1=CC=NC=C1,VVQCYROSLKFIKX-UHFFFAOYSA-N,-1.01
"5-fluoro-1-(oxolan-2-yl)pyrimidine-2,4-dione",,O=C1NC(=O)N(C2CCCO2)C=C1F,WFWLQNSHRPWKFK-UHFFFAOYSA-N,-1.01
"piperidine, 3-propyl-,",,CCCC1CCCNC1,CRZUKKNUMNKBFJ-UHFFFAOYSA-N,-1.011
"4-bromo-1,2-dichlorobenzene",,Clc1ccc(Br)cc1Cl,CFPZDVAZISWERM-UHFFFAOYSA-N,-1.01149355
"urea, (1,1-dimethylpropyl)-",,CCC(C)(C)NC(N)=O,OVUWGANMOQIFHZ-UHFFFAOYSA-N,-1.0142
disodium 6-hydroxy-5-[(E)-2-{4-[(E)-2-[4-(phenylamino)-3-sulfonatophenyl]diazen-1-yl]naphthalen-1-yl}diazen-1-yl]naphthalene-2-sulfonate,,[Na+].[Na+].[O-][S](=O)(=O)c1ccc2c(C=CC(=O)/C2=N/Nc3ccc(N=Nc4ccc(Nc5ccccc5)c(c4)[S]([O-])(=O)=O)c6ccccc36)c1,IQEHCFKNGZTEDA-LAEQOQJSSA-L,-1.015630004
morphine sulfate,,C[NH+]1CC[C@@]23C4Oc5c(O)ccc(C[C@H]1[C@H]2C=C[C@H]4O)c35.C[NH+]6CC[C@@]78C9Oc%10c(O)ccc(C[C@H]6[C@H]7C=C[C@H]9O)c8%10.[O-][S]([O-])(=O)=O,USAHOPJHPJHUNS-TXCKYYANSA-N,-1.0157
1-benzylpiperidin-4-one,,O=C1CCN(CC1)Cc2ccccc2,SJZKULRDWHPHGG-UHFFFAOYSA-N,-1.016982858
Latamoxef; Moxalactam,PubChemCIDDB04570,[H][C@]12OCC(CSC3=NN=NN3C)=C(N1C(=O)[C@]2(NC(=O)C(C(O)=O)C1=CC=C(O)C=C1)OC)C(O)=O,JWCSIUVGFCSJCK-CAVRMKNVSA-N,-1.02
"sodium (Z)-N-({3-[(4-amino-9,10-dioxo-3-sulfo-9,10-dihydroanthracen-1-yl)amino]-5-{[(Z)-(2-chloro-1-hydroxyethylidene)amino]methyl}-2,4,6-trimethylphenyl}methyl)-2-chloroethenecarboximidate",,[Na+].Cc1c(CNC(=O)CCl)c(C)c(Nc2cc(c(N)c3C(=O)c4ccccc4C(=O)c23)[S]([O-])(=O)=O)c(C)c1CNC(=O)CCl,HVDUMYBPGXAPLG-UHFFFAOYSA-M,-1.017551933
"2-butyl-1,3-diazaspiro[4.4]non-1-en-4-one 2-butyl-1,3-diazaspiro[4.4]non-2-en-4-one dihydrochloride",,Cl.Cl.CCCCC1=NC2(CCCC2)C(=O)N1.CCCCC3=NC(=O)C4(CCCC4)N3,IIJDGRLUYMOVFN-UHFFFAOYSA-N,-1.019613944
"2(1h)-pyrimidinone, 4-amino-5-ethyl-",,CCC1=CNC(=O)N=C1N,CZJGCEGNCSGRBI-UHFFFAOYSA-N,-1.0197
"2-propenoic acid, 2,3-dibromo-3-iodo-",,OC(=O)C(Br)=C(Br)I,AORLFLUMZXGBEY-UHFFFAOYSA-N,-1.0197
2-[3-(2-hydroxyethoxy)phenoxy]ethanol,,OCCOC1=CC=CC(OCCO)=C1,IAXFZZHBFXRZMT-UHFFFAOYSA-N,-1.02
"3-(3,4-dihydroxyphenyl)-2-methylaminopropanoic acid",,CNC(CC1=CC(O)=C(O)C=C1)C(=O)O,QZIWDCLHLOADPK-UHFFFAOYSA-N,-1.02
"5,5'-(1,2-Ethanediyl)di(2-furancarboximidamide)",,N=C(N)C1=CC=C(CCC2=CC=C(C(=N)N)O2)O1,JQQBZDIFLUBFEW-UHFFFAOYSA-N,-1.02
"2-[(E)-2-{4-[ethyl(2-hydroxyethyl)amino]phenyl}diazen-1-yl]-6-methoxy-3-methyl-1,3-benzothiazol-3-ium methyl sulfate",,CCN(CCO)c1ccc(cc1)N=Nc2sc3cc(OC)ccc3[n+]2C.CO[S]([O-])(=O)=O,MHOFGBJTSNWTDT-UHFFFAOYSA-M,-1.020815087
"benzyl({[(2,6-dimethylphenyl)carbamoyl]methyl})diethylazanium benzoate hydrate",,CC[N+](CC)(CC(=O)Nc1c(C)cccc1C)Cc2ccccc2.[O-]C(=O)c3ccccc3,VWTINHYPRWEBQY-UHFFFAOYSA-N,-1.020958606
3-nitrophthalic acid,,OC(=O)c1cccc(c1C(O)=O)[N+]([O-])=O,KFIRODWJCYBBHY-UHFFFAOYSA-N,-1.0214
"4-pteridinamine, n,n-dimethyl-",,CN(C)c1ncnc2nccnc12,KXQWQYBKUMVBIB-UHFFFAOYSA-N,-1.0216
"N-ethyl-4'-{[4-(ethylamino)-2-methylphenyl][4-(ethylimino)-3-methylcyclohexa-2,5-dien-1-ylidene]methyl}-3-methylbiphenyl-2-amine acetate",,CCNc1ccc(cc1C)C(c2ccc(NCC)c(C)c2)=C3C=CC(=NCC)C(=C3)C.CC(O)=O,ULVODSYPARVTIB-UHFFFAOYSA-N,-1.023221287
"3,4-dihydroxybenzonitrile",,Oc1ccc(cc1O)C#N,NUWHYWYSMAPBHK-UHFFFAOYSA-N,-1.023516095
trimethoxymethane,,COC(OC)OC,PYOKUURKVVELLB-UHFFFAOYSA-N,-1.025801334
phenylphosphonic acid,,O[P](O)(=O)c1ccccc1,QLZHNIAADXEJJP-UHFFFAOYSA-N,-1.026923058
Cefsulodin,CAS62587-73-9,NC(=O)c1cc[n+](CC2=C(C(=O)[O-])N3C(=O)[C@@H](NC(=O)[C@@H](c4ccccc4)S(=O)(=O)[O-])[C@H]3SC2)cc1,SYLKGLMBLAAGSC-QLVMHMETSA-M,-1.03
resorufin,,Oc1ccc2N=C3C=CC(=O)C=C3Oc2c1,HSSLDCABUXLXKM-UHFFFAOYSA-N,-1.0277
Fluorouracil,CAS51-21-8,O=c1[nH]cc(F)c(=O)[nH]1,GHASVSINZRGABV-UHFFFAOYSA-N,-1.03
"butanamide, 2-chloro-2-ethyl-",,CCC(Cl)(CC)C(N)=O,AFVUGDZUMJEIHX-UHFFFAOYSA-N,-1.0289
Zidovudine,CAS30516-87-1,Cc1cn([C@H]2C[C@H](N=[N+]=[N-])[C@@H](CO)O2)c(=O)[nH]c1=O,HBOMLICNUCNMMY-XLPZGREQSA-N,-1.03
Atenolol,CAS29122-68-7,CC(C)NCC(O)COc1ccc(CC(N)=O)cc1,METKIMKYRPQLGS-UHFFFAOYSA-N,-1.03
"benzenesulfonamide, 4-(3-hydroxypropyl)-",,N[S](=O)(=O)c1ccc(CCCO)cc1,NSNHWGDFYDLMBS-UHFFFAOYSA-N,-1.032
n-nitrosoethyl-n-butylamine,,CCCCN(CC)N=O,ZGMCNGHHUQZNIH-UHFFFAOYSA-N,-1.0354
"3,5-dimethylhex-1-yn-3-ol",,CC(C)CC(C)(O)C#C,NECRQCBKTGZNMH-UHFFFAOYSA-N,-1.036597924
"carbamic acid, sulfamoyl-, butyl ester",,CCCCOC(=O)N[S](N)(=O)=O,GFBKOADVXIDVBA-UHFFFAOYSA-N,-1.0375
"3,4-dihydro-2H-pyran",,C1COC=CC1,BUDQDWGNQVEFAC-UHFFFAOYSA-N,-1.038398213
a-aminocaproic acid,,CCCC[C@H](N)C(O)=O,LRQKBLKVPFOOQJ-YFKPBYRVSA-N,-1.0387
2-phenylpropane-2-peroxol,,CC(C)(OO)c1ccccc1,YQHLDYVWEZKEOX-UHFFFAOYSA-N,-1.039379878
dka-24,,ClC(Cl)C(=O)N(CC=C)CC(=O)NCC=C,ZAWPDPLWGKAAHU-UHFFFAOYSA-N,-1.0397
cyclacillin;  wy-4508;   6-(1-aminocyclohexanecarboxamido)penicillanic acid,,CC1(C)SC2C(NC(=O)C3(N)CCCCC3)C(=O)N2C1C(O)=O,HGBLNBBNRORJKI-UHFFFAOYSA-N,-1.04
"2,2-dimethyl-1-butanol",,CCC(C)(C)CO,XRMVWAKMXZNZIL-UHFFFAOYSA-N,-1.04
"5-(ethylaminomethyl)thieno[3,2-d]furan-2-sulfonamide",,CCNCC1=CC2=C(OC(S(N)(=O)=O)=C2)S1,QFENMVVNIJTSNC-UHFFFAOYSA-N,-1.04
dimethyltin dichloride,,C[Sn](C)(Cl)Cl,PKKGKUDPKRTKLJ-UHFFFAOYSA-L,-1.0407
propyne,,CC#C,MWWATHDPGQKSAR-UHFFFAOYSA-N,-1.0417
"Sulfuric acid, mono-C12-18-alkyl esters, sodium salts",,[Na+].CCCCCCCCCCCCCCCO[S]([O-])(=O)=O,SMECTXYFLVLAJE-UHFFFAOYSA-M,-1.042005529
"1h-indole, 2,3-dihydro-",,C1Cc2ccccc2N1,LPAGFVYQRIESJQ-UHFFFAOYSA-N,-1.0427
2-(2-methylphenyl)ethanol,,Cc1ccccc1CCO,RUGISKODRCWQNE-UHFFFAOYSA-N,-1.042878011
dl-norleucine,,CCCCC(N)C(O)=O,LRQKBLKVPFOOQJ-UHFFFAOYSA-N,-1.0453
leucine,,CC(C)CC(N)C(O)=O,ROHFNLRQFUQHCH-UHFFFAOYSA-N,-1.0456
dioxodiarsoxane,,[O--].[O--].[O--].[As+3].[As+3],QTLQKAJBUDWPIB-UHFFFAOYSA-N,-1.045896296
1-methyl-2(h)-quinolinone,,CN1C(=O)C=Cc2ccccc12,QYEMNJMSULGQRD-UHFFFAOYSA-N,-1.0466
Bambuterol,CAS81732-65-2,CN(C)C(=O)Oc1cc(OC(=O)N(C)C)cc(C(O)CNC(C)(C)C)c1,ANZXOIAKUNOVQU-UHFFFAOYSA-N,-1.05
"(4S,4aS,5aS,6S,12aR)-7-chloro-4-(dimethylamino)-1,6,10,11,12a-pentahydroxy-3,12-dioxo-3,4,4a,5,5a,6,12,12a-octahydrotetracene-2-carboxamide hydrochloride",,[Cl-].CN(C)[C@H]1[C@@H]2C[C@@H]3[C@H](O)c4c(Cl)ccc(O)c4C(=C3C(=O)[C@]2(O)C(=O)\C(=C(N)/O)C1=O)O.[H+],POPIIQNWBBGGRT-YHBXTMLJSA-N,-1.046901651
4-methylaniline,,Cc1ccc(N)cc1,RZXMPPFPUUCRFN-UHFFFAOYSA-N,-1.047745261
"1,3-diazinane-2,4,6-trione",,O=C1CC(=O)NC(=O)N1,HNYOPLTXPVRDBG-UHFFFAOYSA-N,-1.048661639
"1h-imidazole, 2-(2-methylpropyl)-",,CC(C)Cc1[nH]ccn1,RFXJLECGYGFJCI-UHFFFAOYSA-N,-1.0488
"ethanol, 2- 2-(hexyloxy)ethoxy -",,CCCCCCOCCOCCO,GZMAAYIALGURDQ-UHFFFAOYSA-N,-1.049
"phloroglucinol;  1,3,5-benzenetriol;  1,3,5-trihydroxybenzene",,OC1=CC(=CC(=C1)O)O,QCDYQQDYXPDABM-UHFFFAOYSA-N,-1.05
"proxicromil analog iii;  cyclohexano(6,7)chromone-2-carboxylic acid",,OC(=O)C1=CC(=O)C2=C(O1)C=C3CCCCC3=C2,AGIKBILZJVNZNW-UHFFFAOYSA-N,-1.05
chloroethane,,CCCl,HRYZWHHZPQKTII-UHFFFAOYSA-N,-1.050748809
chlorine,,ClCl,KZBUYRJDOAKODT-UHFFFAOYSA-N,-1.0513
"benzeneacetic acid, 2-carboxy-",,OC(=O)Cc1ccccc1C(O)=O,ZHQLTKAVLJKSKR-UHFFFAOYSA-N,-1.0515
hexanoic acid,,CCCCCC(O)=O,FUZZWVXGSFPDMH-UHFFFAOYSA-N,-1.052219379
{2-[2-(ethenyloxy)ethoxy]ethoxy}ethene,,C=COCCOCCOC=C,SAMJGBVVQUEMGC-UHFFFAOYSA-N,-1.053070208
"5-methyl-1,2-oxazole-4-carboxylate",,Cc1oncc1C([O-])=O,VQBXUKGMJCPBMF-UHFFFAOYSA-M,-1.05536111
methyl n-benzoglycine,,COC(=O)CNC(=O)c1ccccc1,XTKVNQKOTKPCKM-UHFFFAOYSA-N,-1.0556
"2-hexoxypropane-1,3-diol",,CCCCCCOC(CO)CO,PXWAQUODOTWYMT-UHFFFAOYSA-N,-1.055812212
(methylsulfanyl)ethane,,CCSC,WXEHBUMAEPOYKP-UHFFFAOYSA-N,-1.056973282
"2-hydroxy-3,5-dinitrobenzoic acid",,OC(=O)c1cc(cc(c1O)[N+]([O-])=O)[N+]([O-])=O,LWFUFLREGJMOIZ-UHFFFAOYSA-N,-1.057125752
(2E)-2-methylpent-2-enal,,CC\C=C(/C)C=O,IDEYZABHVQLHAF-GQCTYLIASA-N,-1.057369728
"acetamide, 2,2-dibromo-",,NC(=O)C(Br)Br,YUIKPESWSMJSMP-UHFFFAOYSA-N,-1.0574
"[(2R,3R)-5,7-dihydroxy-2-(3,4,5-trihydroxyphenyl)chroman-3-yl] 3,4,5-trihydroxybenzoate",,Oc1cc(O)c2C[C@@H](OC(=O)c3cc(O)c(O)c(O)c3)[C@H](Oc2c1)c4cc(O)c(O)c(O)c4,WMBWREPUVVBILR-WIYYLYMNSA-N,-1.059160932
"2,2'-ethene-1,2-diylbis[5-({4-anilino-6-[bis(2-hydroxyethyl)amino]-1,3,5-triazin-2-yl}amino)benzenesulfonic acid]",,OCCN(CCO)c1nc(Nc2ccccc2)nc(Nc3ccc(\C=C\c4ccc(Nc5nc(Nc6ccccc6)nc(n5)N(CCO)CCO)cc4[S](O)(=O)=O)c(c3)[S](O)(=O)=O)n1,CNGYZEMWVAWWOB-VAWYXSNFSA-N,-1.059279349
3-acetylaminophenol;  3-hydroxyacetanilide,,CC(=O)NC1=CC=CC(=C1)O,QLNWXBAGRTUKKI-UHFFFAOYSA-N,-1.06
"O,O-bis(2-methylphenyl) hydrogen dithiophosphate",,Cc1ccccc1O[P](S)(=S)Oc2ccccc2C,DFVPPGZSXADRCW-UHFFFAOYSA-N,-1.060529965
"3,5,5-trimethylcyclohex-2-en-1-one",,CC1=CC(=O)CC(C)(C)C1,HJOVHMDZYOCNQW-UHFFFAOYSA-N,-1.061358221
"disodium 1-amino-4-[[4-[(2-bromo-1-oxoallyl)amino]-2-sulphonatophenyl]amino]-9,10-dihydro-9,10-dioxoanthracene-2-sulphonate",,[Na+].[Na+].Nc1c2C(=O)c3ccccc3C(=O)c2c(Nc4ccc(NC(=O)C(Br)=C)cc4[S]([O-])(=O)=O)cc1[S]([O-])(=O)=O,BCENAVMKNRCXMQ-UHFFFAOYSA-L,-1.061803892
maltol,,CC1=C(O)C(=O)C=CO1,XPCTZQVDEJYUGT-UHFFFAOYSA-N,-1.063
"benzenebutanoic acid, 4-methoxy-¥-oxo-",,COc1ccc(cc1)C(=O)CCC(O)=O,OMTDIBZSUZNVJK-UHFFFAOYSA-N,-1.0632
2-[(2-methylprop-2-enoyl)oxy]ethyl 3-oxobutanoate,,CC(=O)CC(=O)OCCOC(=O)C(C)=C,IBDVWXAVKPRHCU-UHFFFAOYSA-N,-1.063682205
"carbamic acid, diethyl-, ethyl ester",,CCOC(=O)N(CC)CC,VAJCYQHLYBTSHG-UHFFFAOYSA-N,-1.0651
dl-phenylalanine,,NC(Cc1ccccc1)C(O)=O,COLNVLDHVKWLRT-UHFFFAOYSA-N,-1.0657
"2,4-dinitrobenzoic acid",,OC(=O)c1ccc(cc1[N+]([O-])=O)[N+]([O-])=O,ZIIGSRYPZWDGBT-UHFFFAOYSA-N,-1.0665
3-nitrophenol,,OC1=CC(=CC=C1)[N+]([O-])=O,RTZZCYNQPHTPPL-UHFFFAOYSA-N,-1.07
3-methyl-3h-pteridin-4-one,,CN1C=NC2=C(N=CC=N2)C1=O,ADZLJYXPHYDHJU-UHFFFAOYSA-N,-1.07
"N-(dimethylamino)-1,3-dihydrobenzo[de]isoquinoline-2-carboximidamide",,CN(C)NC(=N)N1CC2=CC=CC3=CC=CC(=C32)C1,WAFKRHOZVGMONG-UHFFFAOYSA-N,-1.07
"4-chlorobenzene-1,3-diol",,Oc1ccc(Cl)c(O)c1,JQVAPEJNIZULEK-UHFFFAOYSA-N,-1.070567643
(+)(r)-6-hydroxy-4-methyl-caproaldehyde,,C[C@@H](CCO)CCC=O,UBEQHGSYADUQGL-SSDOTTSWSA-N,-1.0732
"2(1h)-azecinone, octahydro-",,O=C1CCCCCCCCN1,KBLFLMTZLPQGIF-UHFFFAOYSA-N,-1.0737
sulfasomizole,,Cc1cc(N[S](=O)(=O)c2ccc(N)cc2)sn1,JVYKJZPZFIUYAB-UHFFFAOYSA-N,-1.0762
"2-ethyl-2-{[2-ethyl-3-hydroxy-2-(hydroxymethyl)propoxy]methyl}propane-1,3-diol",,CCC(CO)(CO)COCC(CC)(CO)CO,WMYINDVYGQKYMI-UHFFFAOYSA-N,-1.076302279
"ethanol, 2-[(2-amino-9h-purin-9-yl)methoxy]-",,Nc1ncc2ncn(COCCO)c2n1,OKQHSIGMOWQUIK-UHFFFAOYSA-N,-1.0775
isoflurophate,,CC(C)O[P](F)(=O)OC(C)C,MUCZHBLJLSDCSD-UHFFFAOYSA-N,-1.0777
2-methyl-2-hexanol,,CCCCC(C)(C)O,KRIMXCDMVRMCTC-UHFFFAOYSA-N,-1.0784
Clindamycin Hydrochloride Hydrate,CAS58207-19-5,CCC[C@@H]1C[C@@H](C(=O)N[C@H]([C@H](C)Cl)[C@H]2O[C@H](SC)[C@H](O)[C@@H](O)[C@H]2O)N(C)C1.Cl,AUODDLQVRAJAJM-XJQDNNTCSA-N,-1.08
"propanoic acid, 2-(cyclohexyloxy)-2-methyl-",,CC(C)(OC1CCCCC1)C(O)=O,OKFRDMBIDGPCCX-UHFFFAOYSA-N,-1.0798
Propylene,,CC=C,QQONPFPTGQHPMA-UHFFFAOYSA-N,-1.08
Ethylenedichloride  ,,ClCCCl,WSLDOOZREJYCGB-UHFFFAOYSA-N,-1.08
suberonitrile,,N#CCCCCCCC#N,BTNXBLUGMAMSSH-UHFFFAOYSA-N,-1.081092287
"trisodium (4E)-3-oxo-4-[2-(4-sulfonatonaphthalen-1-yl)hydrazin-1-ylidene]-3,4-dihydronaphthalene-2,7-disulfonate",,[Na+].[Na+].[Na+].[O-][S](=O)(=O)c1ccc2c(c1)C=C(C(=O)/C2=N/Nc3ccc(c4ccccc34)[S]([O-])(=O)=O)[S]([O-])(=O)=O,VOBHRQFELWTZFS-DXVNCNPQSA-K,-1.082414087
6-chlorohexan-1-ol,,OCCCCCCCl,JNTPTNNCGDAGEJ-UHFFFAOYSA-N,-1.082442195
"N,N-diisobutylformamide",,CC(C)CN(CC(C)C)C=O,NTYICSDTCGMBQM-UHFFFAOYSA-N,-1.082666634
2-(bis(1-methylethyl)amino)ethanol,,CC(C)N(CCO)C(C)C,ZYWUVGFIXPNBDL-UHFFFAOYSA-N,-1.0829
"2,5-pyrrolidinedione, 1-bromo-",,BrN1C(=O)CCC1=O,PCLIMKBDDGJMGD-UHFFFAOYSA-N,-1.0831
"quinoline, decahydro-",,C1CC[C@@H]2NCCC[C@H]2C1,POTIYWUALSJREP-BDAKNGLRSA-N,-1.0831
bromoethane,,CCBr,RDHPKYGYEGBMSE-UHFFFAOYSA-N,-1.086
Tubocurarine,PubChemCID5351530,C[N+]1(CCC2=CC(=C3C=C2C1CC4=CC=C(C=C4)OC5=C6C(CC7=CC(=C(C=C7)OC)O3)[N+](CCC6=CC(=C5OC)OC)(C)C)OC)C.[I-],LFBAHJRKVCTHKA-UHFFFAOYSA-M,-1.09
dibutoxyphosphinic acid,,CCCCO[P](O)(=O)OCCCC,JYFHYPJRHGVZDY-UHFFFAOYSA-N,-1.087251192
"butanamide, n,n,2-triethyl-",,CCC(CC)C(=O)N(CC)CC,KLVRKNJSKXACLQ-UHFFFAOYSA-N,-1.0876
"glycine, n-[(ethylthio)thioxomethyl]-",,CCSC(=S)NCC(O)=O,OEVJJBPEVKMYFQ-UHFFFAOYSA-N,-1.0882
Dezocine,CAS53648-55-8,C[C@@]12CCCCC[C@@H](Cc3ccc(O)cc31)[C@@H]2N,VTMVHDZWSFQSQP-VBNZEHGJSA-N,-1.09
diethyl maleate,,CCOC(=O)\C=C/C(=O)OCC,IEPRKVQEAMIZSS-WAYWQWQTSA-N,-1.0899
2-methylbenzyl  alcohol,,CC1=CC=CC=C1CO,XPNGNIFUDRPBFJ-UHFFFAOYSA-N,-1.09
"1-(diethylamino)-3-(2,6-dimethylphenyl)urea",,CCN(CC)NC(=O)NC1=C(C)C=CC=C1C,TXYFIIYEMNLZAI-UHFFFAOYSA-N,-1.09
[2-(2-hydroxyethyl-methylamino)-2-oxoethyl] benzoate,,CN(CCO)C(=O)COC(=O)C1=CC=CC=C1,WRKNTBMMMVTKKA-UHFFFAOYSA-N,-1.09
2-quinolinecarboxylic acid,,OC(=O)c1ccc2ccccc2n1,LOAUVZALPPNFOQ-UHFFFAOYSA-N,-1.0911
2-hydroxy-2-methyl-1-phenylpropan-1-one,,CC(C)(O)C(=O)c1ccccc1,XMLYCEVDHLAQEL-UHFFFAOYSA-N,-1.091532091
p-bromophenol,,Oc1ccc(Br)cc1,GZFGOTFRPZRKDS-UHFFFAOYSA-N,-1.092
Tinidazole,CAS19387-91-8,CCS(=O)(=O)CCn1c([N+](=O)[O-])cnc1C,HJLSLZFTEKNLFI-UHFFFAOYSA-N,-1.09
"3a,4,7,7a-tetrahydro-1H-isoindole-1,3(2H)-dione",,O=C1NC(=O)C2CC=CCC12,CIFFBTOJCKSRJY-UHFFFAOYSA-N,-1.093091418
"(2,4-dimethylphenyl)phosphonic acid",,Cc1ccc(c(C)c1)[P](O)(O)=O,DLXVLBCCGRQAAA-UHFFFAOYSA-N,-1.0938
"1,2,4-triazin-3-amine, 5,6-dimethyl-",,Cc1nnc(N)nc1C,UIKGLXJNZXSPGV-UHFFFAOYSA-N,-1.0939
phenylpropylmethylamine,,CNCC(C)c1ccccc1,AUFSOOYCQYDGES-UHFFFAOYSA-N,-1.0947
3-[(2-ethylhexyl)oxy]propan-1-amine,,CCCCC(CC)COCCCN,DVFGEIYOLIFSRX-UHFFFAOYSA-N,-1.096509119
trichloroacetamide,,NC(=O)C(Cl)(Cl)Cl,UPQQXPKAYZYUKO-UHFFFAOYSA-N,-1.0966
"2,4,6-trinitrobenzoic acid",,OC(=O)c1c(cc(cc1[N+]([O-])=O)[N+]([O-])=O)[N+]([O-])=O,KAQBNBSMMVTKRN-UHFFFAOYSA-N,-1.0977
Oxymorphone,CAS76-41-5,CN1CC[C@]23c4c5ccc(O)c4O[C@H]2C(=O)CC[C@@]3(O)[C@H]1C5,UQCNKQCJZOAFTQ-ISWURRPUSA-N,-1.1
fenaminosulf,,[Na+].CN(C)c1ccc(cc1)N=N[S]([O-])(=O)=O,IWDQPCIQCXRBQP-UHFFFAOYSA-M,-1.0991
"disodium 2-(2,4,5,7-tetraiodo-6-oxido-3-oxoxanthen-9-yl)benzoate",,[Na+].[Na+].[O-]C(=O)c1ccccc1C2=C3C=C(I)C(=O)C(=C3Oc4c(I)c([O-])c(I)cc24)I,IINNWAYUJNWZRM-UHFFFAOYSA-L,-1.099315041
"propanamide, 3-(benzoyloxy)-n,n-dimethyl-",,CN(C)C(=O)CCOC(=O)c1ccccc1,IZIGQEAJOSUMEQ-UHFFFAOYSA-N,-1.0994
"5-methyl-3a,4,7,7a-tetrahydro-2-benzofuran-1,3-dione",,CC1=CCC2C(C1)C(=O)OC2=O,OEMSKMUAMXLNKL-UHFFFAOYSA-N,-1.09999437
7-propanoyltheophylline,,CCC(=O)[N]1C=NC2=C1C(=O)N(C)C(=O)N2C,ZPUJWKXAFJEHDZ-UHFFFAOYSA-N,-1.1
hexylamine,,CCCCCCN,BMVXCPBXGZKUPN-UHFFFAOYSA-N,-1.1
2-[[2-amino-3-(4-hydroxyphenyl)propanoyl]amino]acetic acid,,NC(CC1=CC=C(O)C=C1)C(=O)NCC(=O)O,HPYDSVWYXXKHRD-UHFFFAOYSA-N,-1.1
cyclopropyl vinyl ether,,C=COC1CC1,XRCVFFQSIMHODB-UHFFFAOYSA-N,-1.1001
isonicotinic acid n-oxide,,OC(=O)c1cc[n+]([O-])cc1,QCWTWMJMLSKQCJ-UHFFFAOYSA-N,-1.102
"3-methyl-2-(2-oxo-1,3-diazinan-1-yl)butanoic acid",,CC(C)C(N1CCCNC1=O)C(O)=O,AFGBRTKUTJQHIP-UHFFFAOYSA-N,-1.102861926
etacelasil,,COCCO[Si](CCCl)(OCCOC)OCCOC,SLZWEMYSYKOWCG-UHFFFAOYSA-N,-1.1029
2-bromo-3-methyl-butanoic acid,,CC(C)C(Br)C(O)=O,UEBARDWJXBGYEJ-UHFFFAOYSA-N,-1.103
phenoxyacetic acid,,OC(=O)COc1ccccc1,LCPDWSOZIOUXRV-UHFFFAOYSA-N,-1.1031
Aescin,,C/C=C(\C)/C(=O)OC1C(C2(C(CC1(C)C)C3=CCC4C5(CCC(C(C5CCC4(C3(CC2O)C)C)(C)CO)OC6C(C(C(C(O6)C(=O)O)OC7C(C(C(C(O7)CO)O)O)O)O)OC8C(C(C(C(O8)CO)O)O)O)C)CO)OC(=O)C,AXNVHPCVMSNXNP-AUEPDCJTSA-N,-1.103103668
Eptifibatide,CAS188627-80-7,C1CC2C(=O)NC(CSSCCC(=O)NC(C(=O)NCC(=O)NC(C(=O)NC(C(=O)N2C1)CC3=CNC4=CC=CC=C43)CC(=O)O)CCCCN=C(N)N)C(=O)N,CZKPOZZJODAYPZ-UHFFFAOYSA-N,-1.11
"pyran, 2,2'-oxybis[tetrahydro-6-methyl-",,CC1CCCC(O1)OC2CCCC(C)O2,DVRJCBOAIPILPC-UHFFFAOYSA-N,-1.1083
"ethanesulfonothioic acid, s-ethyl ester",,CCS[S](=O)(=O)CC,OICGFSUWXCJLCO-UHFFFAOYSA-N,-1.109
"4-oxo-4h-pyran-2,6-dicarboxylic acid",,OC(=O)C1=CC(=O)C=C(O1)C(O)=O,PBAYDYUZOSNJGU-UHFFFAOYSA-N,-1.1097