Name,ID,SMILES,inchi,LogS
4-(4-chlorophenyl)piperidin-4-ol,,[H+].[Cl-].OC1(CCNCC1)c2ccc(Cl)cc2,PXAJMBHRLGKPQV-UHFFFAOYSA-N,-1.720777531
diethyl chloromalonate,,CCOC(=O)C(Cl)C(=O)OCC,WLWCQKMQYZFTDR-UHFFFAOYSA-N,-1.720972355
"phthalic acid, 4-nitro-, 2-methyl ester",,COC(=O)c1cc(ccc1C([O-])=O)[N+]([O-])=O,DBRYTMUUOGDANT-UHFFFAOYSA-M,-1.721
"1-chloro-1,1-difluoroethane",,CC(F)(F)Cl,BHNZEZWIUMJCGF-UHFFFAOYSA-N,-1.723390854
4-methylbenzaldehyde,,Cc1ccc(C=O)cc1,FXLOVSHXALFLKQ-UHFFFAOYSA-N,-1.723701533
"1,2-butanediol, 2-methyl-1-phenyl-",,CCC(C)(O)C(O)c1ccccc1,VUHBPPSSQKUCSE-UHFFFAOYSA-N,-1.7244
acetamiprid,,CN(Cc1ccc(Cl)nc1)C(C)=NC#N,WCXDHFDTOYPNIE-UHFFFAOYSA-N,-1.7244
ethyltriphenylphosphanium iodide,,[I-].CC[P+](c1ccccc1)(c2ccccc2)c3ccccc3,SLAFUPJSGFVWPP-UHFFFAOYSA-M,-1.727128194
Adenosine,CAS58-61-7,Nc1ncnc2c1ncn2[C@@H]1O[C@H](CO)[C@@H](O)[C@H]1O,OIRDTQYFTABQOQ-KQYNXXCUSA-N,-1.73
"1,3-bis(2-chloroet)-1-nitrosourea",,ClCCNC(=O)N(CCCl)N=O,DLGOEMSEDOSKAD-UHFFFAOYSA-N,-1.7285
diisopropyl succinate,,CC(C)OC(=O)CCC(=O)OC(C)C,YPLYFEUBZLLLIY-UHFFFAOYSA-N,-1.729316846
sodium 4-amino-3-methylbenzene-1-sulfonate,,[Na+].Cc1cc(ccc1N)[S]([O-])(=O)=O,RVSNUNNCRYLEEM-UHFFFAOYSA-M,-1.729501225
adenosine,,NC1=NC=NC2=C1N=C[N]2C3OC(CO)C(O)C3O,OIRDTQYFTABQOQ-UHFFFAOYSA-N,-1.73
"2,4-dimethylthiazole-5-carboxanilide",,CC1=NC(=C(S1)C(=O)NC2=CC=CC=C2)C,UDSJPFPDKCMYBD-UHFFFAOYSA-N,-1.73
Quinhydrone,,O=C1C=CC(c2cc(ccc2O)O)(C=C1)O,KKIYXTAGNVTYLV-UHFFFAOYSA-N,-1.73
"(4E)-4-[(1,3-Thiazol-2-ylcarbonyl)hydrazono]pentanoic acid",,CC(CCC(=O)O)=NNC(=O)C1=NC=CS1,GMRLYFSSMHOUNB-UHFFFAOYSA-N,-1.73
3-chloroacridin-9-amine,,NC1=C2C=CC(Cl)=CC2=NC2=C1C=CC=C2,IRSNBSGPKPZUDV-UHFFFAOYSA-N,-1.73
Erythromycin Lactobionate,CAS3847-29-8,CC[C@H]1OC(=O)[C@H](C)[C@@H](O[C@H]2C[C@@](C)(OC)[C@@H](O)[C@H](C)O2)[C@H](C)[C@@H](O[C@@H]2O[C@H](C)C[C@H](N(C)C)[C@H]2O)[C@](C)(O)C[C@@H](C)C(=O)[C@H](C)[C@@H](O)[C@]1(C)O.O=C(O)[C@H](O)[C@@H](O)[C@H](O[C@@H]1O[C@H](CO)[C@@H](O)[C@@H](O)[C@H]1O)[C@H](O)CO,NNRXCKZMQLFUPL-DVQFKIQISA-N,-1.73
quinhydrone,,Oc1ccc(O)cc1.O=C2C=CC(=O)C=C2,BDJXVNRFAQSMAA-UHFFFAOYSA-N,-1.7305
dimethylguanidine,,CN(C)C(N)=N,SWSQBOPZIKWTGO-UHFFFAOYSA-N,-1.7306
2-methylquinolin-8-ol,,Cc1ccc2cccc(O)c2n1,NBYLBWHHTUWMER-UHFFFAOYSA-N,-1.730618615
hexanebis(thioic) acid,,SC(=O)CCCCC(S)=O,ICTIVTCHZRVVQR-UHFFFAOYSA-N,-1.7326
dmtt (dazomet),,CN1CSC(=S)N(C)C1,QAYICIQNSGETAS-UHFFFAOYSA-N,-1.7331
methyl 2-aminobenzoate,,COC(=O)c1ccccc1N,VAMXMNNIEUEQDV-UHFFFAOYSA-N,-1.733847045
Doxorubicin,CAS23214-92-8,COc1cccc2c1C(=O)c1c(O)c3c(c(O)c1C2=O)C[C@@](O)(C(=O)CO)C[C@@H]3O[C@H]1C[C@H](N)[C@H](O)[C@H](C)O1.Cl,MWWSFMDVAYGXBV-RUELKSSGSA-N,-1.74
3-methyl-3-heptanol,,CCCCC(C)(O)CC,PQOSNJHBSNZITJ-UHFFFAOYSA-N,-1.7356
"sodium 1,4-bis[(2-ethylhexyl)oxy]-1,4-dioxobutane-2-sulfonate",,[Na+].CCCCC(CC)COC(=O)CC(C(=O)OCC(CC)CCCC)[S]([O-])(=O)=O,APSBXTVYXVQYAB-UHFFFAOYSA-M,-1.735714189
tributoxyalumane,,[Al+3].CCCC[O-].CCCC[O-].CCCC[O-],MYWQGROTKMBNKN-UHFFFAOYSA-N,-1.737335476
triallylamine,,C=CCN(CC=C)CC=C,VPYJNCGUESNPMV-UHFFFAOYSA-N,-1.7395
"5,5-dimethylbarbituric  acid",,CC1(C)C(=O)NC(=O)NC1=O,LAOZSCRCYVBSJA-UHFFFAOYSA-N,-1.74
ethyl 2-sulfanylidene-1~{H}-pyrimidine-5-carboxylate,,CCOC(=O)C1=CNC(=S)N=C1,XNHZQTRMBMPMTM-UHFFFAOYSA-N,-1.74
[2-(carbamoyloxymethyl)-2-methylpentyl] carbamate,,CCCC(C)(COC(N)=O)COC(N)=O,NPPQSCRMBWNHMW-UHFFFAOYSA-N,-1.74
2-(benzoylamino)-3-methoxybutanoic acid,,COC(C)C(NC(=O)C1=CC=CC=C1)C(=O)O,ZRRFZADKYTXPJU-UHFFFAOYSA-N,-1.74
1-(4-Ethoxyphenyl)-1-methylurea,,NC(=O)NN=CCOC1CCCCC1,OEXXJWUGCIYXEF-UHFFFAOYSA-N,-1.74
"1,8-Cineole",,CC12CCC(CC1)C(C)(C)O2,WEEGYLXZBRQIMU-UHFFFAOYSA-N,-1.74
"acetamide, n-(2-fluoro-4-methylphenyl)-",,CC(=O)Nc1ccc(C)cc1F,WHXUSWHUWNRNHT-UHFFFAOYSA-N,-1.7403
Salicylic Acid,CAS69-72-7,O=C(O)c1ccccc1O,YGSDEFSMJLZEOE-UHFFFAOYSA-N,-1.74
"1,2-dibromoethene",,Br\C=C\Br,UWTUEMKLYAGTNQ-OWOJBTEDSA-N,-1.7415
methyl benzenesulfonate,,CO[S](=O)(=O)c1ccccc1,CZXGXYBOQYQXQD-UHFFFAOYSA-N,-1.7419
4-methylbenzene-1-sulfonamide,,Cc1ccc(cc1)[S](N)(=O)=O,LMYRWZFENFIFIT-UHFFFAOYSA-N,-1.742195335
"2(1h)-pyridinone, 5-iodo-",,IC1=CNC(=O)C=C1,ZDJUNNCVIDKJAN-UHFFFAOYSA-N,-1.7423
"1,3,3-trimethyl-2-[(E)-2-(1-methyl-2-phenyl-1H-indol-3-yl)ethenyl]-3H-indol-1-ium chloride",,[Cl-].Cn1c2ccccc2c(C=CC3=[N+](C)c4ccccc4C3(C)C)c1c5ccccc5,LORKUZBPMQEQET-UHFFFAOYSA-M,-1.743927996
oct-7-en-1-ol,,OCCCCCCC=C,WXPWPYISTQCNDP-UHFFFAOYSA-N,-1.744232864
1-naphthalenemethanol,,OCc1cccc2ccccc12,PBLNHHSDYFYZNC-UHFFFAOYSA-N,-1.7444
8-quinolinecarboxylic acid,,OC(=O)c1cccc2cccnc12,QRDZFPUVLYEQTA-UHFFFAOYSA-N,-1.7447
N-ethyl(propan-2-yloxy)carbothioamide,,CCNC(=S)OC(C)C,KIACEOHPIRTHMI-UHFFFAOYSA-N,-1.744788784
3-nitrobenzoic acid,,OC(=O)c1cccc(c1)[N+]([O-])=O,AFPHTEQTJZKQAQ-UHFFFAOYSA-N,-1.745907172
"1(3h)-isobenzofuranone, 3-ethyl-",,CCC1OC(=O)c2ccccc12,VMTZKGPXYYJUAR-UHFFFAOYSA-N,-1.747
"1,6-heptadiyne",,C#CCCCC#C,RSPZSDWVQWRAEF-UHFFFAOYSA-N,-1.747
2-aminobenzenesulfonic acid,,Nc1ccccc1[S](O)(=O)=O,ZMCHBSMFKQYNKA-UHFFFAOYSA-N,-1.747168641
"carbamic acid, sulfamoyl-, 2-ethylbutyl ester",,CCC(CC)COC(=O)N[S](N)(=O)=O,KWOASAPABPGJSS-UHFFFAOYSA-N,-1.7487
"2,3-diaminopyridine",,NC1=CC=CN=C1N,ZZYXNRREDYWPLN-UHFFFAOYSA-N,-1.75
Acetylcodone,,COC1=C2OC3C(OC(C)=O)CCC4C5CC(=C2C43CCN5C)C=C1,LGGDXXJAGWBUSL-UHFFFAOYSA-N,-1.75
heptanal,,CCCCCCC=O,FXHGMKSSBGDXIY-UHFFFAOYSA-N,-1.750124429
Rotigotine,CAS92206-54-7,CCCN(CCc1cccs1)C1CCc2c(O)cccc2C1,KFQYTPMOWPVWEJ-UHFFFAOYSA-N,-1.75
g-32292 (aratone),,CNc1nc(NC(C)C)nc(OC)n1,UDLNDEWOMCYEIA-UHFFFAOYSA-N,-1.7509
3-chloro-4-methylaniline,,Cc1ccc(N)cc1Cl,RQKFYFNZSHWXAW-UHFFFAOYSA-N,-1.753126312
"1,1,2,2-tetrachloroethane",,ClC(Cl)C(Cl)Cl,QPFMBZIOSGYJDE-UHFFFAOYSA-N,-1.7536
"phosphonic acid, (trichloromethyl)-, diethyl est",,CCO[P](=O)(OCC)C(Cl)(Cl)Cl,RVAQSYWDOSHWGP-UHFFFAOYSA-N,-1.7541
"l-tyrosine, 3,5-dichloro-",,NC(Cc1cc(Cl)c(O)c(Cl)c1)C(O)=O,MPHURJQUHZHALJ-UHFFFAOYSA-N,-1.7546
"n-acetyl-l-phenylalanine, ethyl ester",,CCOC(=O)[C@H](Cc1ccccc1)NC(C)=O,YIVZYFDBEPMPNL-LBPRGKRZSA-N,-1.7557
"1-phenylpropane-1,2-dione",,CC(=O)C(=O)c1ccccc1,BVQVLAIMHVDZEL-UHFFFAOYSA-N,-1.7558
2-methyl-4-bromoacetanilide,,CC(=O)Nc1ccc(Br)cc1C,IJZSFOIZVXCSFP-UHFFFAOYSA-N,-1.756
p-chlorobenzyl alcohol,,OCc1ccc(Cl)cc1,PTHGDVCPCZKZKR-UHFFFAOYSA-N,-1.7561
"pteridine, 2-(methylthio)-",,CSc1ncc2nccnc2n1,LNTLWEUAGAFRJR-UHFFFAOYSA-N,-1.7561
norcamphor,,O=C1CC2CCC1C2,KPMKEVXVVHNIEY-UHFFFAOYSA-N,-1.7565
methyl 2-methylbenzoate,,COC(=O)c1ccccc1C,WVWZECQNFWFVFW-UHFFFAOYSA-N,-1.756647676
prop-2-en-1-yl 2-methylprop-2-enoate,,CC(=C)C(=O)OCC=C,FBCQUCJYYPMKRO-UHFFFAOYSA-N,-1.758481787
1-phenylethan-1-one; 2-phenylpropan-2-ol; phenol,,CC(=O)c1ccccc1.CC(C)(O)c2ccccc2.Oc3ccccc3,UJAOROLGXQHBAO-UHFFFAOYSA-N,-1.759306143
"1,3,5-triazine-2,4,6-triamine phosphate",,Nc1nc(N)nc(N)n1.O[P](O)(O)=O,XFZRQAZGUOTJCS-UHFFFAOYSA-N,-1.759410193
asulam;  n1-(methoxycarbonyl)sulfanilamide;  asulox,,COC(=O)N[S](=O)(=O)C1=CC=C(N)C=C1,VGPYEHKOIGNJKV-UHFFFAOYSA-N,-1.76
2-Methylthiopteridine,,c1cnc2c(SC)ncnc2n1,XKENOTHGZDIXRS-UHFFFAOYSA-N,-1.76
Salicylamide,,O=C(N)c(c(O)ccc1)c1,SKZKKFZAGNVIMN-UHFFFAOYSA-N,-1.76
2-[[2-amino-3-(1H-indol-3-yl)propanoyl]amino]-4-methylpentanoic acid,,CC(C)CC(NC(=O)C(N)CC1=CNC2=C1C=CC=C2)C(=O)O,LYMVXFSTACVOLP-UHFFFAOYSA-N,-1.76
"1,1-dichloro-1-nitroethane",,CC(Cl)(Cl)[N+]([O-])=O,OQOGEOLRYAOSKO-UHFFFAOYSA-N,-1.7603
"disodium 4,4'-bis[(4-anilino-6-methoxy-1,3,5-triazin-2-yl)amino]stilbene-2,2'-disulphonate",,[Na+].[Na+].COc1nc(Nc2ccccc2)nc(Nc3ccc(\C=C\c4ccc(Nc5nc(Nc6ccccc6)nc(OC)n5)cc4[S]([O-])(=O)=O)c(c3)[S]([O-])(=O)=O)n1,BDYOOAPDMVGPIQ-QDBORUFSSA-L,-1.761510148
"1,2,4-thiadiazolidine-3,5-dithione",,S=C1NSC(=S)N1,OTNSJAUBOYWVEB-UHFFFAOYSA-N,-1.7618
"methanamine, 1-(trimethylsilyl)-",,C[Si](C)(C)CN,YVWPNDBYAAEZBF-UHFFFAOYSA-N,-1.762
3-aminopyrazine-2-carboxylic acid,,Nc1nccnc1C(O)=O,ZAGZIOYVEIDDJA-UHFFFAOYSA-N,-1.763159597
2-[(carbamoylmethyl)(carboxymethyl)amino]acetic acid,,NC(=O)C[NH+](CC([O-])=O)CC([O-])=O,QZTKDVCDBIDYMD-UHFFFAOYSA-M,-1.763581857
3-ethoxy-4-hydroxybenzaldehyde,,CCOc1cc(C=O)ccc1O,CBOQJANXLMLOSS-UHFFFAOYSA-N,-1.764202268
"sodium 2-amino-4,6-dinitrophenolate",,[Na+].Nc1cc(cc(c1[O-])[N+]([O-])=O)[N+]([O-])=O,UENNEPPWFZYINW-UHFFFAOYSA-M,-1.764813003
3-amino-2-hydroxy-5-nitrobenzene-1-sulfonic acid,,Nc1cc(cc(c1O)[S](O)(=O)=O)[N+]([O-])=O,DQIVFTJHYKDOMZ-UHFFFAOYSA-N,-1.766205568
sodium perchlorate,,[Na+].[O-][Cl](=O)(=O)=O,BAZAXWOYCMUHIX-UHFFFAOYSA-M,-1.766528496
"2-amino-5-[(4-amino-3-sulfophenyl)[(1E)-3-sulfocyclohexa-2,5-dien-1-ylidene]methyl]-3-methylbenzene-1-sulfonic acid",,[Na+].[Na+].CC1=CC(/C=C(C1=N)[S]([O-])(=O)=O)=C(/c2ccc(N)c(c2)[S](O)(=O)=O)c3ccc(N)c(c3)[S]([O-])(=O)=O,WZRZTHMJPHPAMU-UHFFFAOYSA-L,-1.767563244
sodium 2-amino-5-nitrobenzenesulfonate,,[Na+].Nc1ccc(cc1[S]([O-])(=O)=O)[N+]([O-])=O,VTMRGLXTSDVXAE-UHFFFAOYSA-M,-1.767738518
methacycline,,CN(C)[C@H]1[C@@H]2[C@@H](O)[C@@H]3C(=C)c4cccc(O)c4C(=C3C(=O)[C@]2(O)C(=O)\C(=C(N)/O)C1=O)O,GLFJCEVWKWQSJP-ISFNZQQKSA-N,-1.768
oxocalcium,,O=[Ca],ODINCKMPIJJUCX-UHFFFAOYSA-N,-1.768326879
Irinotecan,CAS97682-44-5,CCc1c2c(nc3ccc(OC(=O)N4CCC(N5CCCCC5)CC4)cc13)-c1cc3c(c(=O)n1C2)COC(=O)[C@]3(O)CC,UWKQSNNFCGGAFS-XIFFEERXSA-N,-1.77
diisobutylamine,,CC[C@H](C)[NH2+][C@H](C)CC,OBYVIBDTOCAXSN-OCAPTIKFSA-O,-1.769
cyclopentylproprionic acid,,OC(=O)CCC1CCCC1,ZRPLANDPDWYOMZ-UHFFFAOYSA-N,-1.7691
1H-benzimidazole,,[nH]1cnc2ccccc12,HYZJCKYKOHLVJF-UHFFFAOYSA-N,-1.769197233
3-ethyl-5-methylphenol,,CCc1cc(C)cc(O)c1,XTCHLXABLZQNNN-UHFFFAOYSA-N,-1.7696
Procainamide,CAS51-06-9,CCN(CC)CCNC(=O)c1ccc(N)cc1,REQCZEXYDRLIBE-UHFFFAOYSA-N,-1.77
"2,4-hexadienoic acid;  sorbic  acid",,C\C=C\C=C\C(O)=O,WSWCOQWTEOXDQX-MQQKCMAXSA-N,-1.77
ganciclovir,,NC1=NC2=C(N=C[N]2COC(CO)CO)C(=O)N1,IRSCQMHQWWYFCW-UHFFFAOYSA-N,-1.77
"amicarbalide;  n,n'-di(3-amidinophenyl)urea",,NC(=N)C1=CC(=CC=C1)NC(=O)NC2=CC(=CC=C2)C(N)=N,KRUVSRGJKCHYMY-UHFFFAOYSA-N,-1.77
sorbic_acid,,O=C(O)C=CC=CC,WSWCOQWTEOXDQX-UHFFFAOYSA-N,-1.77
"(2,4-dioxo-1H-pyrimidin-5-yl)sulfamic acid",,O=C1NC=C(NS(=O)(=O)O)C(=O)N1,ZZRMMIWUJLCXPF-UHFFFAOYSA-N,-1.77
2-amino-3-(1H-indol-3-yl)propanoic acid,,NC(CC1=CNC2=C1C=CC=C2)C(=O)O,QIVBCDIJIAJPQS-UHFFFAOYSA-N,-1.77
"4-aminobenzene-1,3-disulfonic acid",,Nc1ccc(cc1[S](O)(=O)=O)[S](O)(=O)=O,IMUUNYPYNWXUBO-UHFFFAOYSA-N,-1.770093003
"methane, bromotrinitro-",,[O-][N+](=O)C(Br)([N+]([O-])=O)[N+]([O-])=O,KWSSHZBBUQSMKF-UHFFFAOYSA-N,-1.7705
ethyl valerate,,CCCCC(=O)OCC,ICMAFTSLXCXHRK-UHFFFAOYSA-N,-1.7706
"3-(3-methyl-5-oxo-4,5-dihydro-1H-pyrazol-1-yl)benzene-1-sulfonic acid",,CC1=NN(C(=O)C1)c2cccc(c2)[S](O)(=O)=O,VEMGKBUHUTYHHA-UHFFFAOYSA-N,-1.771821543
"3,7-dimethyloct-6-en-1-yn-3-ol",,CC(C)=CCCC(C)(O)C#C,YWTIDNZYLFTNQQ-UHFFFAOYSA-N,-1.772080431
"4-thiazolidinone, 2-thioxo-",,O=C1CSC(=S)N1,KIWUVOGUEXMXSV-UHFFFAOYSA-N,-1.7723
3-methyl-5-propylcyclohex-2-en-1-one,,CCCC1CC(=CC(=O)C1)C,URQMEZRQHLCJKR-UHFFFAOYSA-N,-1.772587094
Mitoxantrone,CAS65271-80-9,O=C1c2c(O)ccc(O)c2C(=O)c2c(NCCNCCO)ccc(NCCNCCO)c21,KKZJGLLVHKMTCM-UHFFFAOYSA-N,-1.77
"morpholine, 4-[(benzoyloxy)acetyl]-",,O=C(COC(=O)c1ccccc1)N2CCOCC2,AVZVLGDSSQKRGL-UHFFFAOYSA-N,-1.7734
"6H-dibenzo[c,e][1,2]oxaphosphinine 6-oxide",,O=[P+]1Oc2ccccc2c3ccccc13,DWSWCPPGLRSPIT-UHFFFAOYSA-N,-1.779623135
4-phenylbutyric  acid;  4-phenylbutanoic acid,,OC(=O)CCCC1=CC=CC=C1,OBKXEAXTFZPCHS-UHFFFAOYSA-N,-1.78
4-hydroxyisophthalic  acid,,OC(=O)C1=CC=C(O)C(=C1)C(O)=O,BCEQKAQCUWUNML-UHFFFAOYSA-N,-1.78
4-fluoroacetanilide,,O=C(Nc(ccc(c1)F)c1)C,JHEFOJNPLXSWNZ-UHFFFAOYSA-N,-1.78
"2-diethylamino-N-(2,6-dimethylphenyl)acetamide",,CCN(CC)CC(=O)NC1=C(C)C=CC=C1C,NNJVILVZKWQKPM-UHFFFAOYSA-N,-1.78
2-Hydroxy-1-(4-hydroxy-3-methoxyphenyl)ethanone,,COC1=C(O)C=CC(C(=O)CO)=C1,QNMANLUEFQNQCX-UHFFFAOYSA-N,-1.78
"1,7-dimethyl-2-oxobicyclo[2.2.1]heptane-7-carboxylic acid",,CC12CCC(CC1=O)C2(C)C(=O)O,LGEPPIZTYFKCQZ-UHFFFAOYSA-N,-1.78
"N-hydroxy-7-methoxy-1,3,3~{a},4,5,6-hexahydrobenzo[de]isoquinoline-2-carboximidamide",,COC1=C2CCCC3CN(C(N)=NO)CC(=C23)C=C1,KZYCDFBBCIFABO-UHFFFAOYSA-N,-1.78
"5-bromo-6-(pyrrolidin-1-ylmethyl)-1H-pyrimidine-2,4-dione",,O=C1NC(=O)C(Br)=C(CN2CCCC2)N1,ACVNMTOONYGQIK-UHFFFAOYSA-N,-1.78
2-chlorobenzenethiol,,Sc1ccccc1Cl,PWOBDMNCYMQTCE-UHFFFAOYSA-N,-1.780035133
o-methoxybenzamide,,COc1ccccc1C(N)=O,MNWSGMTUGXNYHJ-UHFFFAOYSA-N,-1.7815
"benzoic acid, 2-(acetyloxy)-, (methylsulfinyl)me",,CC(=O)Oc1ccccc1C(=O)OC[S](C)=O,ZUYDNEVBJGMSGH-UHFFFAOYSA-N,-1.7824
propyl gallate,,CCCOC(=O)c1cc(O)c(O)c(O)c1,ZTHYODDOHIVTJV-UHFFFAOYSA-N,-1.7827
Nicardipine,CAS55985-32-5,COC(=O)C1=C(C)NC(C)=C(C(=O)OCCN(C)Cc2ccccc2)C1c1cccc([N+](=O)[O-])c1,ZBBHBTPTTSWHBA-UHFFFAOYSA-N,-1.78
ricinine,,COC1=C(C#N)C(=O)N(C)C=C1,PETSAYFQSGAEQY-UHFFFAOYSA-N,-1.784
Paroxetine,CAS61869-08-7,Fc1ccc([C@@H]2CCNC[C@H]2COc2ccc3c(c2)OCO3)cc1,AHOUBRCZNHFOSL-YOEHRIQHSA-N,-1.79
4-(propan-2-yl)aniline,,CC(C)c1ccc(N)cc1,LRTFPLFDLJYEKT-UHFFFAOYSA-N,-1.785831196
"3-[(4-hydroxy-3-methoxyphenyl)methyl]pentane-2,4-dione",,COc1cc(CC(C(C)=O)C(C)=O)ccc1O,IFGDRUTWCITGHG-UHFFFAOYSA-N,-1.786365949
"1,2-ethanediamine, n,n'-bis(phenylmethyl)-",,C(CNCc1ccccc1)NCc2ccccc2,JUHORIMYRDESRB-UHFFFAOYSA-N,-1.7865
"2,4,6(1h,3h,5h)-pyrimidinetrione, 1-(2,3-dihydro",,CCC1(C(=O)NC(=O)N(CC(O)CO)C1=O)c2ccccc2,HZSFDBKBUGUMOD-UHFFFAOYSA-N,-1.7872
2-methylpropane-2-thiol,,CC(C)(C)S,WMXCDAVJEZZYLT-UHFFFAOYSA-N,-1.787845868
(6R)-3-methyl-6-(propan-2-yl)cyclohex-2-en-1-one,,CC(C)[C@H]1CCC(=CC1=O)C,YSTPAHQEHQSRJD-SECBINFHSA-N,-1.78824369
"1(3h)-isobenzofuranone, 6-amino-3-methyl-",,CC1OC(=O)c2cc(N)ccc12,AJZKMDAYNXJZOR-UHFFFAOYSA-N,-1.7891
4-amino-3-methylphenol,,Cc1cc(O)ccc1N,QGNGOGOOPUYKMC-UHFFFAOYSA-N,-1.789422053
simetone,,CCNc1nc(NCC)nc(OC)n1,HKAMKLBXTLTVCN-UHFFFAOYSA-N,-1.7898
n-phenylthiourea,,NC(=S)Nc1ccccc1,FULZLIGZKMKICU-UHFFFAOYSA-N,-1.7898
carbamoylmethyl  acetylsalicylate;  2-(2-acetoxybenzoyloxy)acetamide,,CC(=O)OC1=CC=CC=C1C(=O)OCC(N)=O,KVNWJGCJKBJLRM-UHFFFAOYSA-N,-1.79
"n9-(n,n-diethylglycyloxymethyl)allopurinol",,CCN(CC)CC(=O)OC[N]1N=CC2=C1N=CNC2=O,YVDDVGOVEDYMLX-UHFFFAOYSA-N,-1.79
ethyl 4-(ethylcarbamothioyl)piperazine-1-carboxylate,,CCNC(=S)N1CCN(C(=O)OCC)CC1,XBLAEBYYJMOIDO-UHFFFAOYSA-N,-1.79
"2-(5-benzyl-2,4-dioxoimidazolidin-1-yl)acetic acid",,O=C(O)CN1C(=O)NC(=O)C1CC1=CC=CC=C1,JTNIWQBZJHVWRR-UHFFFAOYSA-N,-1.79
4-[[methyl(2-methylbutyl)amino]diazenyl]benzoic acid,,CCC(C)CN(C)N=NC1=CC=C(C(=O)O)C=C1,YPVJIJCRLUYMMM-UHFFFAOYSA-N,-1.79
"2,6-Dichlorophenol",,Oc1c(Cl)cccc1Cl,HOLHYSJJBXSLMV-UHFFFAOYSA-N,-1.79
2-bromo-4-methyl-5-nitro-1h-imidazole,,Cc1nc(Br)[nH]c1[N+]([O-])=O,GOKBPGXXQSCLLS-UHFFFAOYSA-N,-1.7914
"[3-methyl-4-(2,2,2-trifluoroethoxy)pyridin-2-yl]methanol",,Cc1c(CO)nccc1OCC(F)(F)F,GNILTGRCVCMPFJ-UHFFFAOYSA-N,-1.792073711
"sodium 3-{[9,10-dioxo-4-({2,4,6-trimethyl-3-[(sodiooxy)sulfonyl]phenyl}amino)-9,10-dihydroanthracen-1-yl]amino}-2,4,6-trimethylbenzene-1-sulfonate",,[Na+].[Na+].Cc1cc(C)c(c(C)c1Nc2ccc(Nc3c(C)cc(C)c(c3C)[S]([O-])(=O)=O)c4C(=O)c5ccccc5C(=O)c24)[S]([O-])(=O)=O,UHXQPQCJDDSMCB-UHFFFAOYSA-L,-1.79226117
fluorobenzene,,Fc1ccccc1,PYLWMHQQBFSUBP-UHFFFAOYSA-N,-1.792409766
"2,2'-({4-[(2-hydroxyethyl)amino]-3-nitrophenyl}imino)diethanol",,OCCNc1ccc(cc1[N+]([O-])=O)N(CCO)CCO,MIWUTEVJIISHCP-UHFFFAOYSA-N,-1.795385572
"1,3-benzenediol, 5-(methylthio)-",,CSc1cc(O)cc(O)c1,QHMRZVIHLYUTOF-UHFFFAOYSA-N,-1.7957
methanaminium chloride,,[Cl-].C[NH3+],NQMRYBIKMRVZLB-UHFFFAOYSA-N,-1.796002246
2-(phenoxymethyl)oxirane,,C1OC1COc2ccccc2,FQYUMYWMJTYZTK-UHFFFAOYSA-N,-1.796392183
"1,2-hydrazinecarbothioamide",,NC(=S)NNC(N)=S,KCOYHFNCTWXETP-UHFFFAOYSA-N,-1.7965
alpha-methylbenzyl alcohol,,CC(O)c1ccccc1,WAPNOHKVXSQRPX-UHFFFAOYSA-N,-1.7969
4-cyanophenyl acetate,,CC(=O)Oc1ccc(cc1)C#N,CJGXWABHYYJNJH-UHFFFAOYSA-N,-1.799017293
"disodium 4,8-diamino-1,5-dihydroxy-9,10-dioxo-9,10-dihydroanthracene-2,6-disulfonate",,[Na].Nc1cc(c(O)c2C(=O)c3c(N)cc(c(O)c3C(=O)c12)[S](O)(=O)=O)[S](O)(=O)=O,CNFAVWPHWCKUOM-UHFFFAOYSA-N,-1.799112619
2-(5-ethenyl-5-methyloxolan-2-yl)propan-2-ol,,CC(C)(O)C1CCC(C)(O1)C=C,BRHDDEIRQPDPMG-UHFFFAOYSA-N,-1.799728458
morpholin-4-ylcarbonylmethyl  acetylsalicylate; n-[2-(2-acetoxybenzoyloxy)acetyl]morpholine,,CC(=O)OC1=CC=CC=C1C(=O)OCC(=O)N2CCOCC2,FLVLUDPFVUXEFV-UHFFFAOYSA-N,-1.8
"2,6-diaminopurine",,NC1=NC2=C(N=C[NH]2)C(=N1)N,MSSXOMSJDRHRMC-UHFFFAOYSA-N,-1.8
nitrobenzene,,O=N(=O)c(cccc1)c1,LQNUZADURLCDLV-UHFFFAOYSA-N,-1.8
"5,5-dimethyl-3-(phenylmethyl)imidazolidine-2,4-dione",,CC1(C)NC(=O)N(CC2=CC=CC=C2)C1=O,DSBMOVYUOIIPDK-UHFFFAOYSA-N,-1.8
2-[(3-nitrobenzoyl)amino]propanoic acid,,CC(C(=O)O)NC(=O)C1=CC(=CC=C1)[N+](=O)[O-],CDBXKLYOJGRINM-UHFFFAOYSA-N,-1.8
fluconazole,,OC(Cn1cncn1)(Cn2cncn2)c3ccc(F)cc3F ,RFHAOTPXVQNOHP-UHFFFAOYSA-N,-1.8
2-nitrophenol,,Oc1ccccc1[N+]([O-])=O,IQUPABOKLQSFBK-UHFFFAOYSA-N,-1.802914236
n-methyl-m-tolylcarbamate,,CNC(=O)Oc1cccc(C)c1,VOEYXMAFNDNNED-UHFFFAOYSA-N,-1.803
Metolcarb,,c1ccccc1(OC(=O)NC),SCWKRWCUMCMVPW-UHFFFAOYSA-N,-1.803
tert-butyl prop-2-enoate,,CC(C)(C)OC(=O)C=C,ISXSCDLOGDJUNJ-UHFFFAOYSA-N,-1.804593715
"ethanone, 2-(4-aminophenyl)-1-phenyl-",,Nc1ccc(CC(=O)c2ccccc2)cc1,XBDWIJCZQWUMMU-UHFFFAOYSA-N,-1.805
"2-methyl-4-phenyl-1,3-dioxolane",,CC1OCC(O1)c2ccccc2,YPPGSWWESBCSCT-UHFFFAOYSA-N,-1.805450609
N-(2-methoxyphenyl)-3-oxobutanamide,,COc1ccccc1NC(=O)CC(C)=O,KYYRTDXOHQYZPO-UHFFFAOYSA-N,-1.805905521
2-methylpropyl prop-2-enoate,,CC(C)COC(=O)C=C,CFVWNXQPGQOHRJ-UHFFFAOYSA-N,-1.806759777
"1h-purine-2,6-dione, 7-butyl-3,7-dihydro-1,3-dim",,CCCCn1cnc2N(C)C(=O)N(C)C(=O)c12,CPRWWXKLQNLTSZ-UHFFFAOYSA-N,-1.8069
"ethanamine, 2-(trimethylsilyl)-",,C[Si](C)(C)CCN,NIBXVTMWHMMKGV-UHFFFAOYSA-N,-1.807
cyanuric acid,,O=C1NC(=O)NC(=O)N1,ZFSLODLOARCGLH-UHFFFAOYSA-N,-1.807646076
alizarin complexone,,OC(=O)CN(CC(O)=O)Cc1cc2C(=O)c3ccccc3C(=O)c2c(O)c1O,PWIGYBONXWGOQE-UHFFFAOYSA-N,-1.8077
[1-(carbamoylamino)-2-methylpropyl]urea,,CC(C)C(NC(N)=O)NC(N)=O,QFHMNFAUXJAINK-UHFFFAOYSA-N,-1.809694359
"1,3-bis(acetoxymethyl)-5-fluorouracil",,CC(=O)OCN1C=C(F)C(=O)N(COC(C)=O)C1=O,CCBUAQOJPDCNAJ-UHFFFAOYSA-N,-1.81
l-dopa benzyl ester,,NC(CC1=CC(=C(O)C=C1)O)C(=O)OCC2=CC=CC=C2,KZQJKVJONMBQQU-UHFFFAOYSA-N,-1.81
4-Amino-N-(6-iodo-3-pyridinyl)benzenesulfonamide,,NC1=CC=C(S(=O)(=O)NC2=CN=C(I)C=C2)C=C1,FDHQEJALNMUUDH-UHFFFAOYSA-N,-1.81
4-(butyl-methylamino)diazenylbenzoic acid,,CCCCN(C)N=NC1=CC=C(C(=O)O)C=C1,NIHJLLRQVKJRSV-UHFFFAOYSA-N,-1.81
p-nitrobenzaldehyde,,[O-][N+](=O)c1ccc(C=O)cc1,BXRFQSNOROATLV-UHFFFAOYSA-N,-1.8101
3-chloro-2-methylpropene,,CC(=C)CCl,OHXAOPZTJOUYKM-UHFFFAOYSA-N,-1.8108
methyl benzoate,,COC(=O)c1ccccc1,QPJVMBTYPHYUOC-UHFFFAOYSA-N,-1.811798351
"3-heptanol, 2-methyl-",,CCCCC(O)C(C)C,QGVFLDUEHSIZIG-UHFFFAOYSA-N,-1.8122
sodium 3-[[4-(benzoylethylamino)-2-methylphenyl]azo]-4-hydroxynaphthalene-1-sulphonate,,[Na+].CC(Nc1ccc(N\N=C\2C=C(c3ccccc3C2=O)[S]([O-])(=O)=O)c(C)c1)C(=O)c4ccccc4,RIHHHARTNPZGHI-BTCGTBLPSA-M,-1.812900622
ethyl isovalerate,,CCOC(=O)CC(C)C,PPXUHEORWJQRHJ-UHFFFAOYSA-N,-1.8135
isoamyl acetate,,CC(C)CCOC(C)=O,MLFHJEHSLIIPHL-UHFFFAOYSA-N,-1.8135
o-nitrobenzaldehyde,,[O-][N+](=O)c1ccccc1C=O,CMWKITSNTDAEDT-UHFFFAOYSA-N,-1.8138
"pentanamide, n,n'-1,2-ethanediylbis-",,CCCCC(=O)NCCNC(=O)CCCC,RPTHWMGVZGXIPQ-UHFFFAOYSA-N,-1.8145
zinc dibenzoate,,[Zn++].[O-]C(=O)c1ccccc1.[O-]C(=O)c2ccccc2,JDLYKQWJXAQNNS-UHFFFAOYSA-L,-1.816841725
1-[4-(4-hydroxyphenyl)piperazin-1-yl]ethan-1-one,,CC(=O)N1CCN(CC1)c2ccc(O)cc2,AGVNLFCRZULMKK-UHFFFAOYSA-N,-1.817914488
"1h-indole-2,3-dicarboxamide, 1-methyl-",,Cn1c2ccccc2c(C(N)=O)c1C(N)=O,VUUWSWSYQZKQQJ-UHFFFAOYSA-N,-1.8184
Oxaliplatin,CAS63121-00-6,CCCCCOC(=O)NC1=NC(=O)N(C=C1F)C2C(C(C(O2)C)O)O.C1CCC(C(C1)[NH-])[NH-].C(=O)(C(=O)[O-])[O-].[Pt+4],ZSTCHQOKNUXHLZ-UHFFFAOYSA-L,-1.82
"urea, (1,1-diethylpropyl)-",,CCC(CC)(CC)NC(N)=O,KTVHWABXSLMMCT-UHFFFAOYSA-N,-1.8191
"2-amino-3,5-dimethylbenzene-1-sulfonic acid",,Cc1cc(C)c(N)c(c1)[S](O)(=O)=O,CFCXQQUQLZIZPI-UHFFFAOYSA-N,-1.819543504
"2-sulfamoyl-5-(2-nitrobenzenesulfonamido)-1,3,4-thiadiazole",,N[S](=O)(=O)C1=NN=C(N[S](=O)(=O)C2=C(C=CC=C2)[N+]([O-])=O)S1,CTLJHLYIILERNX-UHFFFAOYSA-N,-1.82
4-[2-(3-trifluoromethylphenylsulfonylamino)pyrimidin-4-ylamino]benzenesulfonamide,,N[S](=O)(=O)C1=CC=C(NC2=CC=NC(=N2)N[S](=O)(=O)C3=CC(=CC=C3)C(F)(F)F)C=C1,KJQMAJCVWXRIHO-UHFFFAOYSA-N,-1.82