Name,ID,SMILES,inchi,LogS
"benzoic acid, 2-(acetyloxy)-, 4-(acetylamino)phe",,CC(=O)Nc1ccc(OC(=O)c2ccccc2OC(C)=O)cc1,FEJKLNWAOXSSNR-UHFFFAOYSA-N,-4.1949
gamma-terpinene,,CC(C)C1=CCC(=CC1)C,YKFLAYDHMOASIY-UHFFFAOYSA-N,-4.1958
"4-[(E)-2-{3-[(E)-2-(2,4-diaminophenyl)diazen-1-yl]phenyl}diazen-1-yl]benzene-1,3-diamine",,Nc1ccc(N=Nc2cccc(c2)N=Nc3ccc(N)cc3N)c(N)c1,BDFZFGDTHFGWRQ-UHFFFAOYSA-N,-4.197152695
"3,3,4,4,5,5,6,6,6-nonafluorohex-1-ene",,FC(F)(F)C(F)(F)C(F)(F)C(F)(F)C=C,GVEUEBXMTMZVSD-UHFFFAOYSA-N,-4.197937601
"naphthalene, 1-methoxy-",,COc1cccc2ccccc12,NQMUGNMMFTYOHK-UHFFFAOYSA-N,-4.1992
aluminium(3+) ion trifluoride,,[F-].[F-].[F-].[Al+3],KLZUFWVZNOTSEM-UHFFFAOYSA-K,-4.199879315
"5,5-diphenylbarbituric  acid",,O=C1NC(=O)C(C(=O)N1)(C2=CC=CC=C2)C3=CC=CC=C3,IKVPZYAOGOJTLK-UHFFFAOYSA-N,-4.2
cinnarizine;  stugeron,,C1CN(CCN1C\C=C\C2=CC=CC=C2)C(C3=CC=CC=C3)C4=CC=CC=C4,DERZBLKQOCDDDZ-JLHYYAGUSA-N,-4.2
methylprednisolone-21-hemisuccinate,,CC1CC2C3CCC(O)(C(=O)COC(=O)CCC(O)=O)C3(C)CC(O)C2C4(C)C=CC(=O)C=C14,IMBXEJJVJRTNOW-UHFFFAOYSA-N,-4.2
valsartan,,CCCCC(=O)N(CC1=CC=C(C=C1)C2=C(C=CC=C2)C3=NN=N[NH]3)C(C(C)C)C(O)=O,ACWBQPMHZXGDFX-UHFFFAOYSA-N,-4.2
"ethyl 5-(benzoyl)-2,3-dihydro-1H-pyrrolizine-1-carboxylate",,CCOC(=O)C1CCN2C(C(=O)C3=CC=CC=C3)=CC=C12,ZXHMVDVCMQIUCB-UHFFFAOYSA-N,-4.2
"2,4,6-Trichloroanisole  ",,COC1=C(Cl)C=C(Cl)C=C1Cl,WCVOGSZTONGSQY-UHFFFAOYSA-N,-4.2
,CHEMBL2180022,CC1=NC(N=C1N)(c2ccccc2)c3cccc(c3)c4cccnc4,TVFLMALGICYVSV-UHFFFAOYSA-N,-4.200344179
methyl 1-methyl-4-(propan-2-yl)bicyclo[2.2.2]oct-5-ene-2-carboxylate,,COC(=O)C1CC2(CCC1(C)C=C2)C(C)C,NXAJZPARDMDLKH-UHFFFAOYSA-N,-4.200866126
bensulide,,CC(C)O[P](=S)(OC(C)C)SCCN[S](=O)(=O)c1ccccc1,RRNIZKPFKNDSRS-UHFFFAOYSA-N,-4.2014
undecan-2-one,,CCCCCCCCCC(C)=O,KYWIYKKSMDLRDC-UHFFFAOYSA-N,-4.20182067
dipropetryne,,CCSc1nc(NC(C)C)nc(NC(C)C)n1,NPWMZOGDXOFZIN-UHFFFAOYSA-N,-4.2031
molybdenum,,[Mo],ZOKXTWBITQBERF-UHFFFAOYSA-N,-4.203848464
copper(+1) cation sulfide,,[SH--].[Cu+].[Cu+],AQMRBJNRFUQADD-UHFFFAOYSA-N,-4.204573041
,CHEMBL2180033,CC1=NC(N=C1N)(C2CC2)c3cccc(c3)c4cncc(Cl)c4,BASHYZBACCLMHK-UHFFFAOYSA-N,-4.206676943
tolcyclamide,,Cc1ccc(cc1)[S](=O)(=O)NC(=O)NC2CCCCC2,RIGBPMDIGYBTBJ-UHFFFAOYSA-N,-4.207
RTI 13,,CCN2c1nc(C)cc(C(F)(F)F)c1NC(=O)c3cccnc23 ,KDDQDUIBYASSFC-UHFFFAOYSA-N,-4.207
"benzamide, 2-iodo-n-phenyl",,Ic1ccccc1C(=O)Nc2ccccc2,LJOZMWRYMKECFF-UHFFFAOYSA-N,-4.2084
cortisone acetate,,CC(=O)OCC(=O)C3(O)CCC4C2CCC1=CC(=O)CCC1(C)C2C(=O)CC34C ,ITRJWOMZKQRYTA-UHFFFAOYSA-N,-4.21
"tert-butyl 3,5,5-trimethylhexaneperoxoate",,CC(CC(=O)OOC(C)(C)C)CC(C)(C)C,VSJBBIJIXZVVLQ-UHFFFAOYSA-N,-4.210096102
3-chlorodiphenyl ether,,Clc1cccc(Oc2ccccc2)c1,BMURONZFJJPAOK-UHFFFAOYSA-N,-4.2107
,CHEMBL1631020,C[C@H](Oc1ccc(cc1C(=O)N2Cc3ccc(cc3C2)c4ccccn4)S(=O)(=O)C)C(F)(F)F,GXJKYQIAVVFXIE-HNNXBMFYSA-N,-4.213178878
,CHEMBL2164046,FC(F)(F)Oc1ccc(CNC(=O)C2N(CCc3ccncc3)C(=O)c4ccccc24)cc1,QMUDOESFACZEJE-UHFFFAOYSA-N,-4.214398951
,CHEMBL2164042,Fc1cnc(CCN2C(C(=O)NCc3cccc(OC(F)(F)F)c3)c4ccccc4C2=O)nc1,FLMWTINNGMAPSE-UHFFFAOYSA-N,-4.214415143
pentaaluminium triyttrium dodecaoxide,,[O--].[O--].[O--].[Al+3].[Y+3],JNDMLEXHDPKVFC-UHFFFAOYSA-N,-4.214539206
methotrimeprazine,,COc1ccc2Sc3ccccc3N(C[C@H](C)CN(C)C)c2c1,VRQVVMDWGGWHTJ-CQSZACIVSA-N,-4.2155
Fluphenazine Hydrochloride,CAS146-56-5,Cl.Cl.OCCN1CCN(CCCN2c3ccccc3Sc3ccc(C(F)(F)F)cc32)CC1,MBHNWCYEGXQEIT-UHFFFAOYSA-N,-4.22
"(4E)-3,3-dimethyl-5-(2,2,3-trimethylcyclopent-3-en-1-yl)pent-4-en-2-ol",,CC(O)C(C)(C)\C=C\C1CC=C(C)C1(C)C,QZFSNJAQFWEXEA-MDZDMXLPSA-N,-4.216746334
diphenyl carbonate,,O=C(Oc1ccccc1)Oc2ccccc2,ROORDVPLFPIABK-UHFFFAOYSA-N,-4.216916663
"benzene, 1,2-diiodo-",,Ic1ccccc1I,BBOLNFYSRZVALD-UHFFFAOYSA-N,-4.217
piperalin,,CC1CCCCN1CCCOC(=O)c2ccc(Cl)c(Cl)c2,BZGLBXYQOMFXAU-UHFFFAOYSA-N,-4.2178
"1-amino-4-hydroxy-2-phenoxy-9,10-dihydroanthracene-9,10-dione",,Nc1c(Oc2ccccc2)cc(O)c3C(=O)c4ccccc4C(=O)c13,MHXFWEJMQVIWDH-UHFFFAOYSA-N,-4.219226833
albendazole,,CCCSC1=CC2=C([NH]C(=N2)NC(=O)OC)C=C1,HXHWSAZORRCQMX-UHFFFAOYSA-N,-4.22
pentyl 4-hydroxy-3-iodobenzoate,,CCCCCOC(=O)C1=CC(I)=C(O)C=C1,JGHBBCHMWWSORJ-UHFFFAOYSA-N,-4.22
Hexyl 3-bromo-4-hydroxybenzoate,,CCCCCCOC(=O)C1=CC(Br)=C(O)C=C1,VXNRGULEPUZZIY-UHFFFAOYSA-N,-4.22
4-(4-methoxyphenyl)sulfonylthiophene-2-sulfonamide,,COC1=CC=C(S(=O)(=O)C2=CSC(S(N)(=O)=O)=C2)C=C1,VDAMAZDKFJYVCT-UHFFFAOYSA-N,-4.22
"3-methyl-9-phenylmethoxy-2,4,4~{a},5,6,7,7~{a},13-octahydro-1~{H}-4,12-methanobenzofuro[3,2-e]isoquinoline",,CN1CCC23C4=C5C=CC(OCC6=CC=CC=C6)=C4OC2CCCC3C1C5,RLNXZCRXJHNVQY-UHFFFAOYSA-N,-4.22
2-[(E)-2-{4-[(E)-2-(2-cyanophenyl)ethenyl]phenyl}ethenyl]benzonitrile,,N#Cc1ccccc1/C=C/c2ccc(cc2)/C=C/c3ccccc3C#N,RBABXJPJIHMBBP-WXUKJITCSA-N,-4.220638859
1-aminoacridine,,Nc1cccc2nc3ccccc3cc12,LOMMDWBTANPFEJ-UHFFFAOYSA-N,-4.222
"benzoic acid, 4-hydroxy, octyl ester",,CCCCCCCCOC(=O)c1ccc(O)cc1,RIKCMEDSBFQFAL-UHFFFAOYSA-N,-4.2224
hydroxyzincio 2-methylprop-2-enoate,,CC(=C)C(=O)O[Zn]O,QBPJVVCNLUNWJN-UHFFFAOYSA-L,-4.223960359
Spironolactone intermediate,,C[C@]12CCC(=O)C=C1CC[C@@H]3[C@@H]2CC[C@@]4(C)[C@H]3CC[C@@]45CCC(=O)O5,UWBICEKKOYXZRG-WNHSNXHDSA-N,-4.225003779
"N~2~-(4,6-diamino-1,3,5-triazin-2-yl)-1,3,5-triazine-2,4,6-triamine",,Nc1nc(N)nc(Nc2nc(N)nc(N)n2)n1,YZEZMSPGIPTEBA-UHFFFAOYSA-N,-4.225336978
disulfoton,,CCO[P](=S)(OCC)SCCSCC,DOFZAZXDOSGAJZ-UHFFFAOYSA-N,-4.2262
"2,2-bis({[(2-methylprop-2-enoyl)oxy]methyl})butyl 2-methylprop-2-enoate",,CCC(COC(=O)C(C)=C)(COC(=O)C(C)=C)COC(=O)C(C)=C,OKKRPWIIYQTPQF-UHFFFAOYSA-N,-4.226234297
lead; sulfuric acid; hydrate,,O.[Pb].O[S](O)(=O)=O,AWTSMFNITNKUQL-UHFFFAOYSA-N,-4.226296416
"3,3-dimethylpentane",,CCC(C)(C)CC,AEXMKKGTQYQZCS-UHFFFAOYSA-N,-4.2286
,CHEMBL2180034,CC1=NC(N=C1N)(C2CCCCC2)c3cccc(c3)c4cccnc4,LQZWYEXWILDROH-UHFFFAOYSA-N,-4.228834469
dialuminium(3+) ion dimolybdenum nonaoxidandiide,,[O--].[O--].[O--].[O--].[O--].[O--].[O--].[O--].[O--].[Al+3].[Al+3].[Mo].[Mo],CTVFHFFURJHNAT-UHFFFAOYSA-N,-4.229152992
n1-(4-methoxyphenyl)sulfanilamide;  4-methoxysulfabenzene,,COC1=CC=C(N[S](=O)(=O)C2=CC=C(N)C=C2)C=C1,PKCILPHWDZXVQT-UHFFFAOYSA-N,-4.23
1-benzoylallopurinol,,O=C1NC=NC2=C1C=N[N]2C(=O)C3=CC=CC=C3,OEYHHMLIRPBEEB-UHFFFAOYSA-N,-4.23
pentachlorobutadiene,,ClC(=C(C=C(Cl)Cl)Cl)Cl,WVFBDVFCOCLEFM-UHFFFAOYSA-N,-4.23
Heptyl 3-chloro-4-hydroxybenzoate,,CCCCCCCOC(=O)C1=CC(Cl)=C(O)C=C1,BJEHUIBLBDLXCQ-UHFFFAOYSA-N,-4.23
Propyzamide  ,,CCC(N)=O,QLNJFJADRCOGBJ-UHFFFAOYSA-N,-4.23
"1,1,3,4,4-Pentachloro-1,2-Butadiene  ",,ClC(Cl)=C=C(Cl)C(Cl)Cl,UKADPXJGNACTCY-UHFFFAOYSA-N,-4.23
pronamide,,CC(C)(NC(=O)c1cc(Cl)cc(Cl)c1)C#C,PHNUZKMIPFFYSO-UHFFFAOYSA-N,-4.2324
bis(2-ethylhexyl)amine,,CCCCC(CC)CNCC(CC)CCCC,SAIKULLUBZKPDA-UHFFFAOYSA-N,-4.236722556
benzthiazuron,,CNC(=O)Nc1sc2ccccc2n1,DTCJYIIKPVRVDD-UHFFFAOYSA-N,-4.2373
5-chloro-2-(4-chlorophenoxy)phenol,,Oc1cc(Cl)ccc1Oc2ccc(Cl)cc2,BYNQFCJOHGOKSS-UHFFFAOYSA-N,-4.239393124
barban;  (3-chlorophenyl)carbamic acid 4-chloro-2-butynyl ester,,ClCC#CCOC(=O)NC1=CC(=CC=C1)Cl,MCOQHIWZJUDQIC-UHFFFAOYSA-N,-4.24
phenazopyridine,,NC1=NC(=C(C=C1)N=NC2=CC=CC=C2)N,QPFYXYFORQJZEC-UHFFFAOYSA-N,-4.24
prednisone-21-acetate,,CC(=O)OCC(=O)C1(O)CCC2C3CCC4=CC(=O)C=CC4(C)C3C(=O)CC12C,MOVRKLZUVNCBIP-UHFFFAOYSA-N,-4.24
n-(5-ethoxycarbonylpyridin-2-yl)benzenesulfonamide,,CCOC(=O)C1=CN=C(N[S](=O)(=O)C2=CC=CC=C2)C=C1,OPJMLVHGUKLBMN-UHFFFAOYSA-N,-4.24
"4-ethoxy-2-oxido-3-phenylsulfonyl-1,2,5-oxadiazol-2-ium",,CCOC1=NO[N+](=C1S(=O)(=O)C2=CC=CC=C2)[O-],HWPOZMMTECRYLB-UHFFFAOYSA-N,-4.24
N-(9H-Fluoren-2-yl)acetamide,,CC(=O)NC1=CC2=C(C=C1)C1=C(C=CC=C1)C2,CZIHNRWJTSTCEX-UHFFFAOYSA-N,-4.24
,CHEMBL2164384,Brc1ccc(CNC(=O)C2N(CCc3ccccn3)C(=O)c4ccccc24)cc1,BKVFCMNILFLKCW-UHFFFAOYSA-N,-4.242912069
,CHEMBL1682823,O=C1CCOc2nc(ccc12)C#CC3CCCCC3,UIKBGXQYPASMTB-UHFFFAOYSA-N,-4.243811917
"3,5-bis(tert-butyl)phenol methylcarbamate",,CNC(=O)Oc1cc(cc(c1)C(C)(C)C)C(C)(C)C,SLZWBCGZQRRUNG-UHFFFAOYSA-N,-4.2445
Medroxyprogesterone Acetate,CAS71-58-9,CC(=O)OCC1CC(=O)C=C2CC[C@@H]3[C@H](CC[C@]4(C)[C@@H](C(C)=O)CC[C@@H]34)[C@]21C,DHLPPJXZMGAVDG-XGNCTREUSA-N,-4.24
aluminium(3+) ion phosphate,,[Al+3].[O-][P]([O-])([O-])=O,ILRRQNADMUWWFW-UHFFFAOYSA-K,-4.246082833
trimethoxy(octyl)silane,,CCCCCCCC[Si](OC)(OC)OC,NMEPHPOFYLLFTK-UHFFFAOYSA-N,-4.246128199
flamprop,,CC(N(c1ccc(F)c(Cl)c1)C(=O)c2ccccc2)C(O)=O,YQVMVCCFZCMYQB-UHFFFAOYSA-N,-4.2474
"2-cyclohexyl-4,6-dinitrophenol",,Oc1c(cc(cc1[N+]([O-])=O)[N+]([O-])=O)C2CCCCC2,QJYHUJAGJUHXJN-UHFFFAOYSA-N,-4.2492
3-Oxoandrost-4-en-17-yl 3-hydroxy-2-(hydroxymethyl)propanoate,,CC12CCC(=O)C=C1CCC1C2CCC2(C)C(OC(=O)C(CO)CO)CCC12,JFEUXSKGSSSZGI-UHFFFAOYSA-N,-4.25
"2,4-d, propyl ester",,CCCOC(=O)COc1ccc(Cl)cc1Cl,URELEWKDONECLX-UHFFFAOYSA-N,-4.2502
ethylcyclohexane,,CCC1CCCCC1,IIEWJVIFRVWJOD-UHFFFAOYSA-N,-4.2507
,CHEMBL3632778,CC(C)(C)c1nc(c2cccs2)c3c(N)c(C#N)c(N)nc3n1,IEOHKMKJPWZXAU-UHFFFAOYSA-N,-4.251431217
3-[[4-[(2-chloro-4-nitrophenyl)azo]phenyl]ethylamino]propiononitrile,,CCN(CCC#N)c1ccc(cc1)N=Nc2ccc(cc2Cl)[N+]([O-])=O,NPBDWXMKLFBNIW-UHFFFAOYSA-N,-4.252611554
Buspirone,CAS36505-84-7,O=C1CC2(CCCC2)CC(=O)N1CCCCN1CCN(c2ncccn2)CC1,QWCRAEMEVRGPNT-UHFFFAOYSA-N,-4.26
PROGABIDE,CHEMBL287631,NC(=O)CCC\N=C(/c1ccc(Cl)cc1)\c2cc(F)ccc2O,IBALRBWGSVJPAP-HEHNFIMWSA-N,-4.25717583
"(4-tert-butyl-3-hydroxy-2,6-dimethylphenyl)acetonitrile",,Cc1cc(c(O)c(C)c1CC#N)C(C)(C)C,OUKJZHRCKQJXSU-UHFFFAOYSA-N,-4.257902463
promethazine,,CC(CN1c2ccccc2Sc3ccccc13)N(C)C,PWWVAXIEGOYWEE-UHFFFAOYSA-N,-4.2597
entacapone,,CCN(CC)C(=O)\C(=C/C1=CC(=C(O)C(=C1)[N+]([O-])=O)O)C#N,JRURYQJSLYLRLN-YHYXMXQVSA-N,-4.26
"1,5-bis(pivaloyloxymethyl)allopurinol",,CC(C)(C)C(=O)OCN1C=NC2=C(C=N[N]2COC(=O)C(C)(C)C)C1=O,XEXFVLNTPDXOJB-UHFFFAOYSA-N,-4.26
1-ethoxy-4-isothiocyanatobenzene,,CCOC1=CC=C(C=C1)N=C=S,REEKOMRZYJXXNR-UHFFFAOYSA-N,-4.26
flavopiridol,,CN1CCC(C(O)C1)C2=C(O)C=C(O)C3=C2OC(=CC3=O)C4=C(Cl)C=CC=C4,BIIVYFLTOXDAOV-UHFFFAOYSA-N,-4.26
carvedilol,,COc1ccccc1OCCNCC(O)COc1cccc2[nH]c3ccccc3c12,OGHNVEJMJSYVRP-UHFFFAOYSA-N,-4.26
"2,4-dimethylpentane",,CC(C)CC(C)C,BZHMBWZPUJHVEE-UHFFFAOYSA-N,-4.2605
isopropyl (1-(4-nitro)phenylsulfonyl) cyclopropa,,CC(C)OC(=O)C1(CC1)[S](=O)(=O)c2ccc(cc2)[N+]([O-])=O,WUAIGAOSYROCOI-UHFFFAOYSA-N,-4.2605
"1,4-dioxacycloheptadecane-5,17-dione",,O=C1CCCCCCCCCCCC(=O)OCCO1,XRHCAGNSDHCHFJ-UHFFFAOYSA-N,-4.261695179
"4-[(4-ethoxyphenyl)amino]-N,N-dimethyl-3-nitrobenzene-1-sulfonamide",,CCOc1ccc(Nc2ccc(cc2[N+]([O-])=O)[S](=O)(=O)N(C)C)cc1,SIFKXZAVMBSRMB-UHFFFAOYSA-N,-4.261751621
benzoylprop ethyl,,CCOC(=O)C(C)N(C(=O)c1ccccc1)c2ccc(Cl)c(Cl)c2,SLCGUGMPSUYJAY-UHFFFAOYSA-N,-4.2627
Ridogrel,CAS110140-89-1,O=C(O)CCCCO/N=C(/c1cccnc1)c1cccc(C(F)(F)F)c1,GLLPUTYLZIKEGF-HAVVHWLPSA-N,-4.26
Entacapone,CAS130929-57-6,CCN(CC)C(=O)/C(C#N)=C/c1cc(O)c(O)c([N+](=O)[O-])c1,JRURYQJSLYLRLN-BJMVGYQFSA-N,-4.26
Norgestimate,CAS35189-28-7,C#C[C@]1(OC(C)=O)CC[C@H]2[C@@H]3CCC4=C/C(=N/O)CC[C@@H]4[C@H]3CC[C@@]21CC,KIQQMECNKUGGKA-NMYWJIRASA-N,-4.27
hexaconazole,,CCCCC(O)(Cn1cncn1)c2ccc(Cl)cc2Cl,STMIIPIFODONDC-UHFFFAOYSA-N,-4.2668
FLUNITRAZEPAM,CHEMBL13280,CN1C(=O)CN=C(c2ccccc2F)c3cc(ccc13)[N+](=O)[O-],PPTYJKAXVCCBDU-UHFFFAOYSA-N,-4.267337592
"benzenesulfonyl chloride, 4-iodo-",,Cl[S](=O)(=O)c1ccc(I)cc1,POXFXTSTVWDWIR-UHFFFAOYSA-N,-4.2686
4-bromophenyl  isothiocyanate;  4-isothiocyanatobromobenzene,,BrC1=CC=C(C=C1)N=C=S,XQACWEBGSZBLRG-UHFFFAOYSA-N,-4.27
2-Methyl-1-nitronaphthalene,,CC1=C(C2=CC=CC=C2C=C1)[N+](=O)[O-],IZNWACYOILBFEG-UHFFFAOYSA-N,-4.27
1-(hexyloxy)hexane,,CCCCCCOCCCCCC,BPIUIOXAFBGMNB-UHFFFAOYSA-N,-4.270303761
mefenpyr-diethyl,,CCOC(=O)C1=NN(c2ccc(Cl)cc2Cl)C(C)(C1)C(=O)OCC,OPGCOAPTHCZZIW-UHFFFAOYSA-N,-4.271
"1,2-dimethylcyclohexane (cis)",,C[C@H]1CCCC[C@H]1C,KVZJLSYJROEPSQ-OCAPTIKFSA-N,-4.2719
carfentrazone-ethyl,,CCOC(=O)C(Cl)Cc1cc(N2N=C(C)N(C(F)F)C2=O)c(F)cc1Cl,MLKCGVHIFJBRCD-UHFFFAOYSA-N,-4.2727
Propoxyphene Napsylate,CAS17140-78-2,CCC(=O)O[C@](Cc1ccccc1)(c1ccccc1)[C@H](C)CN(C)C.O=S(=O)(O)c1ccc2ccccc2c1,VZPXFHVJUUSVLH-MYXGOWFTSA-N,-4.27
ethyl 3-[(diisopropoxyphosphorothioyl)sulfanyl]propanoate,,CCOC(=O)CCS[P](=S)(OC(C)C)OC(C)C,PMWHATAFABINDH-UHFFFAOYSA-N,-4.274778498
Spironolactone,CAS52-01-7,CC(=O)S[C@@H]1CC2=CC(=O)CC[C@]2(C)[C@H]2CC[C@@]3(C)[C@@H](CC[C@@]34CCC(=O)O4)[C@@H]21,LXMSZDCAJNLERA-ZHYRCANASA-N,-4.28
pentachlorophenol,,Oc1c(Cl)c(Cl)c(Cl)c(Cl)c1Cl,IZUPBVBPLAPZRR-UHFFFAOYSA-N,-4.2793
prosulfocarb,,CCCN(CCC)C(=O)SCc1ccccc1,NQLVQOSNDJXLKG-UHFFFAOYSA-N,-4.2798
"2-amino-6,7-diethyl-3h-pteridin-4-one;  2-amino-6,7-diethyl-4-hydroxypteridine",,CCC1=NC2=C(N=C1CC)C(=O)NC(=N2)N,GUJHFRPMSQFYJM-UHFFFAOYSA-N,-4.28
4-chlorophenyl-kni-727,,CC(C)(C)NC(=O)C1N(CSC1(C)C)C(=O)C(O)C(CC2=CC=CC=C2)NC(=O)C3=CC=C(Cl)C=C3,QEBIAQVIMDQJHN-UHFFFAOYSA-N,-4.28
spironolactone,,O=C(OC(C(C(C(C(C(C(=CC(=O)C1)C2)(C1)C)C3)C2SC(=O)C)C4)(C3)C)(C4)C5)C5,LXMSZDCAJNLERA-UHFFFAOYSA-N,-4.28
3-[[2-(acetyloxy)ethyl][4-[(4-nitrophenyl)azo]phenyl]amino]propiononitrile,,CC(=O)OCCN(CCC#N)c1ccc(cc1)N=Nc2ccc(cc2)[N+]([O-])=O,QLRDACXDRLGLOC-UHFFFAOYSA-N,-4.280341584
"2,3-dimethylpentane",,CCC(C)C(C)C,WGECXQBGLLYSFP-UHFFFAOYSA-N,-4.2808
1-(2-ethylbutyl)cyclohexane-1-carboxylic acid,,CCC(CC)CC1(CCCCC1)C(O)=O,XRKJBJLXKLOLKS-UHFFFAOYSA-N,-4.281694517
"3,3'-[[4-[(2-chloro-4-nitrophenyl)azo]phenyl]imino]bis[propiononitrile]",,[O-][N+](=O)c1ccc(N=Nc2ccc(cc2)N(CCC#N)CCC#N)c(Cl)c1,ZXXVVTBKBDDTSE-UHFFFAOYSA-N,-4.281954413
"a-(2,2,2-trichloroethyl)styrene",,ClC(Cl)(Cl)CC(=C)c1ccccc1,JNHUFDXYWPRKLK-UHFFFAOYSA-N,-4.2822
2-ethylhexyl prop-2-enoate,,CCCCC(CC)COC(=O)C=C,GOXQRTZXKQZDDN-UHFFFAOYSA-N,-4.283204614
"3,5-dichloro-2,6-dimethyl-4-pyridinol",,CC1=C(Cl)C(=O)C(=C(C)N1)Cl,ZDPIZLCVJAAHHR-UHFFFAOYSA-N,-4.2834
2-methylheptyl 2-sulfanylacetate,,CC(C)CCCCCOC(=O)CS,RZBBHEJLECUBJT-UHFFFAOYSA-N,-4.285036897
diallate,,CC(C)N(C(C)C)C(=O)SC\C(Cl)=C\Cl,SPANOECCGNXGNR-UITAMQMPSA-N,-4.2856
zinc di(benzothiazol-2-yl) disulphide,,[Zn++].[S-]c1sc2ccccc2n1.[S-]c3sc4ccccc4n3,PGNWIWKMXVDXHP-UHFFFAOYSA-L,-4.285895804
4-[(4-amino-3-chlorophenyl)methyl]-2-chloroaniline,,Nc1ccc(Cc2ccc(N)c(Cl)c2)cc1Cl,IBOFVQJTBBUKMU-UHFFFAOYSA-N,-4.286890723
"3,3,4,4,5,5,6,6,7,7,8,8,8-tridecafluorooctan-1-ol",,OCCC(F)(F)C(F)(F)C(F)(F)C(F)(F)C(F)(F)C(F)(F)F,GRJRKPMIRMSBNK-UHFFFAOYSA-N,-4.287064023
1-methyl-4-(propan-2-ylidene)cyclohex-1-ene,,CC(C)=C1CCC(=CC1)C,MOYAFQVGZZPNRA-UHFFFAOYSA-N,-4.287342935
flurbiprofen,,CC(C(O)=O)C1=CC=C(C(=C1)F)C2=CC=CC=C2,SYTBZMRGLBWNTM-UHFFFAOYSA-N,-4.29
5-methyl-2-(4-nitrophenylsulfonamido)pyridine;  n-(5-methylpyridin-2-yl)-4-nitrobenzenesulfonamide,,CC1=CC=C(N[S](=O)(=O)C2=CC=C(C=C2)[N+]([O-])=O)N=C1,GSASPEJNWFVWQK-UHFFFAOYSA-N,-4.29
diisopropyl  2-(4-nitrophenylsulfonyl)succinate; 3-isopropoxycarbonyl-3-(4-nitrophenylsulfonyl)propanoic acid isopropyl ester,,CC(C)OC(=O)CC(C(=O)OC(C)C)[S](=O)(=O)C1=CC=C(C=C1)[N+]([O-])=O,UJXAIAIZGQQXIX-UHFFFAOYSA-N,-4.29
Parathion,,CCOP(=S)(OCC)OC1=CC=C(C=C1)[N+](=O)[O-],LCCNCVORNKJIRZ-UHFFFAOYSA-N,-4.29
2-ethylnaphthalene,,CCc1ccc2ccccc2c1,RJTJVVYSTUQWNI-UHFFFAOYSA-N,-4.2901
"1,3-dimethylnapthalene",,Cc1cc(C)c2ccccc2c1,QHJMFSMPSZREIF-UHFFFAOYSA-N,-4.2907
[2-(tert-butylperoxy)propan-2-yl]benzene,,CC(C)(C)OOC(C)(C)c1ccccc1,BIISIZOQPWZPPS-UHFFFAOYSA-N,-4.29093415
"1,2,3-trichloro-4-methoxybenzene",,COc1ccc(Cl)c(Cl)c1Cl,FRQUNVLMWIYOLV-UHFFFAOYSA-N,-4.2918
"(1S,5S)-6,6-dimethyl-2-methylidenebicyclo[3.1.1]heptane",,CC1(C)C2CCC(=C)C1C2,WTARULDDTDQWMU-UHFFFAOYSA-N,-4.292313455
,CHEMBL1631021,C[C@H](Oc1ccc(cc1C(=O)N2Cc3ccc(cc3C2)c4ccncc4)S(=O)(=O)C)C(F)(F)F,XICAQVBMJIEJFN-HNNXBMFYSA-N,-4.292360124
ursodeoxycholic acid,,C[C@H](CCC(O)=O)[C@H]1CC[C@H]2[C@@H]3[C@@H](O)C[C@@H]4C[C@H](O)CC[C@]4(C)[C@H]3CC[C@]12C,RUDATBOHQWOJDD-UZVSRGJWSA-N,-4.2929
hexanoyl hexanoate,,CCCCCC(=O)OC(=O)CCCCC,PKHMTIRCAFTBDS-UHFFFAOYSA-N,-4.296805043
2-tert-butylcyclohexyl acetate,,CC(=O)O[C@@H]1CCCC[C@@H]1C(C)(C)C,FINOAUDUYKVGDS-WDEREUQCSA-N,-4.297335855
3-isothiocyanatophenyl  nicotinate,,O=C(OC1=CC=CC(=C1)N=C=S)C2=CC=CN=C2,OUAPWRYEWXOCRN-UHFFFAOYSA-N,-4.3
"naproxen,  ester 3a",,COC1=CC2=CC=C(C=C2C=C1)C(C)C(=O)OCCOC(=O)CN3CCOCC3,FFWGHEZSBSOVRZ-UHFFFAOYSA-N,-4.3
sulfaproxyline,,CC(C)OC1=CC=C(C=C1)C(=O)N[S](=O)(=O)C2=CC=C(N)C=C2,FBFBRAFXKGRRHI-UHFFFAOYSA-N,-4.3
4-[2-(4-tosylureido)pyrimidin-4-yl-amino]benzenesulfonamide,,CC1=CC=C(C=C1)[S](=O)(=O)NC(=O)NC2=NC(=CC=N2)NC3=CC=C(C=C3)[S](N)(=O)=O,DYGCMMCLBCULBL-UHFFFAOYSA-N,-4.3
"cis-1,2-Dimethylcyclohexane",,C/C1CCCCC1\C,KVZJLSYJROEPSQ-UHFFFAOYSA-N,-4.3
alanycarb,,CCOC(=O)CCN(Cc1ccccc1)SN(C)C(=O)O\N=C(\C)SC,GMAUQNJOSOMMHI-JXAWBTAJSA-N,-4.3005
,CHEMBL3634882,CC(C)(C)c1nc(c2ccc[nH]2)c3c(N)c(C#N)c(N)nc3n1,ICMJDMLRLGUTMR-UHFFFAOYSA-N,-4.300753722
,CHEMBL3632793,CC(C)(C)c1nc(c2occn2)c3c(N)c(C#N)c(N)nc3n1,VJHBZXQKYJWMJF-UHFFFAOYSA-N,-4.300754458
"phenol, 4-chloro-3,5-dimethyl-2-(phenylmethyl)-",,Cc1cc(O)c(Cc2ccccc2)c(C)c1Cl,DTWBOPJMZJGHEW-UHFFFAOYSA-N,-4.3009
cortisone acetate,,CC(=O)OCC(=O)[C@@]1(O)CC[C@H]2[C@@H]3CCC4=CC(=O)CC[C@]4(C)[C@H]3C(=O)C[C@]12C,ITRJWOMZKQRYTA-RFZYENFJSA-N,-4.3037
"3,6,9-triethyl-3,6,9-trimethyl-1,2,4,5,7,8-hexaoxonane",,CCC1(C)OOC(C)(CC)OOC(C)(CC)OO1,KVWLLOIEGKLBPA-UHFFFAOYSA-N,-4.304855444
flamprop-isopropyl,,CC(C)OC(=O)C(C)N(C(=O)c1ccccc1)c2ccc(F)c(Cl)c2,IKVXBIIHQGXQRQ-UHFFFAOYSA-N,-4.3056
3-methylhexane,,CCCC(C)CC,VLJXXKKOSFGPHI-UHFFFAOYSA-N,-4.3063
"sodium 1-amino-4-[(3-acetamidophenyl)amino]-9,10-dioxo-9,10-dihydroanthracene-2-sulfonate",,[Na+].CC(=O)Nc1cccc(Nc2cc(c(N)c3C(=O)c4ccccc4C(=O)c23)[S]([O-])(=O)=O)c1,MIBVDSFVCOIWCC-UHFFFAOYSA-M,-4.307910861
osthole,,COc1ccc2C=CC(=O)Oc2c1CC=C(C)C,MBRLOUHOWLUMFF-UHFFFAOYSA-N,-4.3087
triamcinolone  acetonide,,CC1(C)OC2CC3C4CCC5=CC(=O)C=CC5(C)C4(F)C(O)CC3(C)C2(O1)C(=O)CO,YNDXUCZADRHECN-UHFFFAOYSA-N,-4.31
pentadecanoic acid,,CCCCCCCCCCCCCCC(O)=O,WQEPLUUGTLDZJY-UHFFFAOYSA-N,-4.31
naphthalene,,c1ccc2ccccc2c1,UFWIBTONFRDIAS-UHFFFAOYSA-N,-4.311225605
clorexolone,,N[S](=O)(=O)c1cc2c(CN(C3CCCCC3)C2=O)cc1Cl,VPMWFZKOWULPGT-UHFFFAOYSA-N,-4.3128
dibutyl but-2-enedioate,,CCCCOC(=O)\C=C\C(=O)OCCCC,JBSLOWBPDRZSMB-BQYQJAHWSA-N,-4.313551537
biphenyl;  diphenyl,,C1=CC=C(C=C1)C2=CC=CC=C2,ZUOUZKKEUPVFJK-UHFFFAOYSA-N,-4.32
n-(2-chlorophenyl)benzenesulfonamide,,ClC1=CC=CC=C1N[S](=O)(=O)C2=CC=CC=C2,KMSWCQQQRKBBAH-UHFFFAOYSA-N,-4.32
n1-(2-chloro-4-methylphenyl)sulfanilamide;  2-chloro-4-methylsulfabenzene,,CC1=CC(=C(N[S](=O)(=O)C2=CC=C(N)C=C2)C=C1)Cl,IIQTWTHBDAEKBJ-UHFFFAOYSA-N,-4.32
4-hexyloxycarbonyloxyacetanilide,,CCCCCCOC(=O)OC1=CC=C(NC(C)=O)C=C1,QWBBNHZKIXNKGJ-UHFFFAOYSA-N,-4.32
1-bromo-2-naphthyl  isothiocyanate;  1-bromo-2-isothiocyanatonaphthalene,,BrC1=C(C=CC2=CC=CC=C12)N=C=S,QCDAGXOLJWOIFN-UHFFFAOYSA-N,-4.32
2-tert-butylcyclohexyl ethyl carbonate,,CCOC(=O)OC1CCCCC1C(C)(C)C,ZHWLEUGSDGROJS-UHFFFAOYSA-N,-4.321140283
flamprop-m-methyl,,COC(=O)[C@@H](C)N(C(=O)c1ccccc1)c2ccc(F)c(Cl)c2,RBNIGDFIUWJJEV-LLVKDONJSA-N,-4.3219
"1-(2,6,6-trimethylcyclohex-2-en-1-yl)pentan-3-one; prop-2-yn-1-ol",,CCC(=O)CCC1C(=CCCC1(C)C)C.OCC#C,BKHCAESJENSNLE-UHFFFAOYSA-N,-4.321905689
"2-(cyclohexylsulfanyl)-2,3-dihydro-1H-isoindole-1,3-dione",,O=C1N(SC2CCCCC2)C(=O)c3ccccc13,UEZWYKZHXASYJN-UHFFFAOYSA-N,-4.323794172
"benzamide, n-(3,4-dichlorophenyl)-n-[(dimethylam",,CN(C)C(=O)N(c1ccc(Cl)c(Cl)c1)C(=O)c2ccccc2,QQXXYTVEGCOZRF-UHFFFAOYSA-N,-4.3238
azafenidin,,Clc1cc(Cl)c(cc1OCC#C)N2N=C3CCCCN3C2=O,XOEMATDHVZOBSG-UHFFFAOYSA-N,-4.3251
dimefuron,,CN(C)C(=O)Nc1ccc(N2N=C(OC2=O)C(C)(C)C)c(Cl)c1,DHWRNDJOGMTCPB-UHFFFAOYSA-N,-4.3258
mepronil,,CC(C)Oc1cccc(NC(=O)c2ccccc2C)c1,BCTQJXQXJVLSIG-UHFFFAOYSA-N,-4.3265
,CHEMBL1209425,Clc1ccc(cc1)S(=O)(=O)NCC(N2CCCC2)c3ccccc3,ZPRBJXXWXXZRAH-UHFFFAOYSA-N,-4.326962323
metconazole,,CC1(C)CCC(Cc2ccc(Cl)cc2)C1(O)Cn3cncn3,XWPZUHJBOLQNMN-UHFFFAOYSA-N,-4.3288
"s6,9-bis(pentanoyloxymethyl)-6-mercaptopurine; 9-(pentanoyloxymethyl)-6-(pentanoyloxymethylthio)purine",,CCCCC(=O)OCSC1=NC=NC2=C1N=C[N]2COC(=O)CCCC,RIVOAEXQOBGQPO-UHFFFAOYSA-N,-4.33
3-ethoxy-4-nitro-1-propan-2-yl-5H-pyrrol-2-one,,CCOC1=C(CN(C1=O)C(C)C)[N+](=O)[O-],ZCINFQNVNLHJOV-UHFFFAOYSA-N,-4.33
"Octane-1,2-diyldinitrate",,CCCCCCC(CO[N+](=O)O)O[N+](=O)O,NTAHVPRDOLPMJC-UHFFFAOYSA-N,-4.33
"2-(4-aminophenyl)-6-methyl-1,3-benzothiazole-7-sulfonic acid",,Cc1ccc2nc(sc2c1[S](O)(=O)=O)c3ccc(N)cc3,KGZUHYIHYBDNLC-UHFFFAOYSA-N,-4.332499462