Name,ID,SMILES,inchi,LogS
"5-(4-bromobenzenesulfonylimido)-4-methyl-2-sulfonamido-delta2-1,3,4-thiadiazoline",,CN1N=C(SC1=N[S](=O)(=O)C2=CC=C(Br)C=C2)[S](N)(=O)=O,OOQVFGGUMHVRKM-UHFFFAOYSA-N,-2.51
"5-(2-carboxybenzenesulfonylimido)-4-methyl-delta2-1,3,4-thiadiazoline-2-sulfonamide",,CN1N=C(SC1=N[S](=O)(=O)C2=C(C=CC=C2)C(O)=O)[S](N)(=O)=O,RAJJRSWYQMFJLA-UHFFFAOYSA-N,-2.51
"5-Phenylcyclohexane-1,3-dione",,O=C1CC(=O)CC(C2=CC=CC=C2)C1,UPPYKNLSSLIIAZ-UHFFFAOYSA-N,-2.51
deprenyl,,C[C@H](CC1=CC=CC=C1)N(C)CC#C,MEZLKOACVSPNER-GFCCVEGCSA-N,-2.51
4-methylene-2-(2-methylprop-1-en-1-yl)tetrahydro-2H-pyran,,CC(C)=CC1CC(=C)CCO1,JRIATCFPZFOVNP-UHFFFAOYSA-N,-2.510422359
2-chloro-2-methylbutane,,CCC(C)(C)Cl,CRNIHJHMEQZAAS-UHFFFAOYSA-N,-2.51054501
"3,5-dimethyl-4-heptanol",,CCC(C)C(O)C(C)CC,ZKXITRNXHWEQJU-UHFFFAOYSA-N,-2.5108
benzotrifluoride,,FC(F)(F)c1ccccc1,GETTZEONDQJALK-UHFFFAOYSA-N,-2.511
"1,3-cyclohexanedione, 5-phenyl-",,OC1=CC(=O)C[C@@H](C1)c2ccccc2,ZFVDSCASCRHXCP-SNVBAGLBSA-N,-2.5113
"4-pyrimidinamine, 5-ethyl-2,6-dipropyl-",,CCCc1nc(N)c(CC)c(CCC)n1,LMTGLSPLZHJYNH-UHFFFAOYSA-N,-2.5132
"2,4-dichlorophenoxyacetic acid",,OC(=O)COc1ccc(Cl)cc1Cl,OVSKIKFHRZPJSS-UHFFFAOYSA-N,-2.5139
"benzenesulfonamide, 4-[(4-hydroxybutyl)thio]-",,N[S](=O)(=O)c1ccc(SCCCCO)cc1,WDXVDWRSYOFRBP-UHFFFAOYSA-N,-2.5141
1-methyl-4-nitrobenzene,,Cc1ccc(cc1)[N+]([O-])=O,ZPTVNYMJQHSSEA-UHFFFAOYSA-N,-2.514943789
"[(1S,2S,3S,5R)-2,6,6-trimethylbicyclo[3.1.1]heptan-3-yl]methanamine",,C[C@@H]1[C@@H](CN)C[C@H]2C[C@@H]1C2(C)C,MUOITVAMHSVXLO-IMSYWVGJSA-N,-2.515915381
isobutyl 2-chloropropanoate,,CC(C)COC(=O)[C@H](C)Cl,AEEGJNJYJCGJFZ-LURJTMIESA-N,-2.51754425
mecarbam,,CCOC(=O)N(C)C(=O)CS[P](=S)(OCC)OCC,KLGMSAOQDHLCOS-UHFFFAOYSA-N,-2.5177
"1,3-benzenediol, 5-(butylthio)-",,CCCCSc1cc(O)cc(O)c1,OBUQICZSPJTRQI-UHFFFAOYSA-N,-2.5191
"Phosphorodithioic acid, mixed O,O-bis(iso-Bu and pentyl) esters, zinc salts",,[Zn++].CC(C)CO[P]([S-])(=S)OCC(C)C.CC(C)CO[P]([S-])(=S)OCC(C)C,CFGBPGNQMWYJPH-UHFFFAOYSA-L,-2.519248335
4-ethylbenzoic  acid,,CCC1=CC=C(C=C1)C(O)=O,ZQVKTHRQIXSMGY-UHFFFAOYSA-N,-2.52
n-[2-(2-acetoxybenzoyloxy)acetyl]glycineamide,,CC(=O)OC1=CC=CC=C1C(=O)OCC(=O)NCC(N)=O,UDKPETZNUFLIFG-UHFFFAOYSA-N,-2.52
"DL-1,2-Diphenylethanol",,OC(c(cccc1)c1)Cc(cccc2)c2,GBGXVCNOKWAMIP-UHFFFAOYSA-N,-2.52
Demeclocycline,,c1cc(O)c2C(=O)C3=C(O)C4(O)C(=O)C(C(=O)N)=C(O)C(N(C)C)C4CC3C(O)c2c1Cl,FMTDIUIBLCQGJB-UHFFFAOYSA-N,-2.52
2-[[4-(acetylsulfamoyl)phenyl]carbamoyl]benzoic acid,,CC(=O)NS(=O)(=O)C1=CC=C(NC(=O)C2=C(C(=O)O)C=CC=C2)C=C1,SNWQKAWITMVCQW-UHFFFAOYSA-N,-2.52
"(~{N}~{E})-~{N}-[(3~{Z})-3-hydroxyimino-1,7,7-trimethyl-2-bicyclo[2.2.1]heptanylidene]hydroxylamine",,CC12CCC(C(=NO)C1=NO)C2(C)C,JCFJSQZXNOMXCP-UHFFFAOYSA-N,-2.52
4-(hexyl-methylamino)diazenylbenzoic acid,,CCCCCCN(C)N=NC1=CC=C(C(=O)O)C=C1,RLOOWKRHNNTPQK-UHFFFAOYSA-N,-2.52
"3-pyridinecarboxamide, n-hexyl-",,CCCCCCNC(=O)c1cccnc1,QNWFROSVYQTOPU-UHFFFAOYSA-N,-2.5221
"3-oxo-N-(2-oxo-2,3-dihydro-1H-1,3-benzodiazol-5-yl)butanamide",,CC(=O)CC(=O)Nc1ccc2NC(=O)Nc2c1,VEMDQCGHZNXORX-UHFFFAOYSA-N,-2.522680786
"2-propenoic acid, 3-(2-ethoxyphenyl)-, (z)-",,CCOc1ccccc1\C=C/C(O)=O,UXTDCJJEJZCEBF-FPLPWBNLSA-N,-2.5234
"8h-purine-8-thione, 1,7-dihydro-",,S=C1Nc2cncnc2N1,VABISHCLVYMGAU-UHFFFAOYSA-N,-2.5243
diamminedichloropalladium,,N.N.[Cl-].[Cl-].[Pd++],WIEZTXFTOIBIOC-UHFFFAOYSA-L,-2.52573978
Methazolamide,CAS554-57-4,CC(=O)/N=c1/sc(S(N)(=O)=O)nn1C,FLOSMHQXBMRNHR-QPJJXVBHSA-N,-2.53
"N,N-dimethyl-3,3-diphenyloxolan-2-iminium bromide",,[Br-].C[N+](C)=C1OCCC1(c2ccccc2)c3ccccc3,QJPXLCQSAFQCBD-UHFFFAOYSA-M,-2.526575134
"disodium (4Z)-3-hydroxy-4-[2-(2-hydroxy-3,5-dinitrophenyl)hydrazin-1-ylidene]cyclohexa-2,5-dien-1-one 4-nitroaniline 3-aminobenzene-1-sulfonate 5-amino-2-(phenylamino)benzene-1-sulfonate iron",,[Na+].[Na+].[Fe].Nc1ccc(cc1)[N+]([O-])=O.Nc2cccc(c2)[S]([O-])(=O)=O.Nc3ccc(Nc4ccccc4)c(c3)[S]([O-])(=O)=O.OC\5=CC(=O)C=CC5=N/Nc6cc(cc(c6O)[N+]([O-])=O)[N+]([O-])=O,GPGKAHBGRXSZGY-DULHVBCPSA-L,-2.526815423
1-napthylthiourea,,NC(=S)Nc1cccc2ccccc12,PIVQQUNOTICCSA-UHFFFAOYSA-N,-2.5278
2-methylheptan-1-ol,,CCCCCC(C)CO,QZESEQBMSFFHRY-UHFFFAOYSA-N,-2.528127071
"1,4-benzenedisulfonamide",,N[S](=O)(=O)c1ccc(cc1)[S](N)(=O)=O,WOUBWJAJSXAOIV-UHFFFAOYSA-N,-2.5283
2-chlorotoluene,,Cc1ccccc1Cl,IBSQPLPBRSHTTG-UHFFFAOYSA-N,-2.5295
4-methylbenzoic acid,,CC1=CC=C(C=C1)C(O)=O,LPNBBFKOUUSUDB-UHFFFAOYSA-N,-2.53
fenobucarb,,CCC(C)C1=C(OC(=O)NC)C=CC=C1,DIRFUJHNVNOBMY-UHFFFAOYSA-N,-2.53
"4,5-dichloroquiaiacol",,c1c(Cl)c(Cl)cc(O)c1OC,HAAFFTHBNFBVKY-UHFFFAOYSA-N,-2.53
"5,5-dipropyl-1,3-diazinane-2,4,6-trione",,CCCC1(CCC)C(=O)NC(=O)NC1=O,RCOUWKSZRXJXLA-UHFFFAOYSA-N,-2.53
3-Fluoro-n-hydroxy-n-(2-methylphenyl)benzamide,,CC1=C(N(O)C(=O)C2=CC(F)=CC=C2)C=CC=C1,BCINCJSHDIKDTH-UHFFFAOYSA-N,-2.53
biopterin,,CC(O)C(O)c1cnc2NC(=NC(=O)c2n1)N,LHQIJBMDNUYRAM-UHFFFAOYSA-N,-2.5301
diethyl suberate,,CCOC(=O)CCCCCCC(=O)OCC,PEUGOJXLBSIJQS-UHFFFAOYSA-N,-2.5304
phorate sulfone,,CCO[P](=S)(OCC)SC[S](=O)(=O)CC,YVPSNUIHHFTTRL-UHFFFAOYSA-N,-2.5309
Felbamate,CAS25451-15-4,NC(=O)OCC(COC(N)=O)c1ccccc1,WKGXYQFOCVYPAC-UHFFFAOYSA-N,-2.53
Loperamide,CAS53179-11-6,CN(C)C(=O)C(CCN1CCC(O)(c2ccc(Cl)cc2)CC1)(c1ccccc1)c1ccccc1,RDOIQAHITMMDAJ-UHFFFAOYSA-N,-2.53
1-chloro-2-nitro-4-(trifluoromethyl)benzene,,[O-][N+](=O)c1cc(ccc1Cl)C(F)(F)F,TZGFQIXRVUHDLE-UHFFFAOYSA-N,-2.533704672
narceine,,COc1ccc(C(=O)Cc2c(CCN(C)C)cc3OCOc3c2OC)c(C(O)=O)c1OC,DEXMFYZAHXMZNM-UHFFFAOYSA-N,-2.535
"2,2,6-trimethyl-6-vinyltetrahydro-2H-pyran",,CC1(C)CCCC(C)(O1)C=C,NETOHYFTCONTDT-UHFFFAOYSA-N,-2.535987278
prop-2-en-1-yl 2-phenoxyacetate,,C=CCOC(=O)COc1ccccc1,VUFZVGQUAVDKMC-UHFFFAOYSA-N,-2.536373209
"piperidine, 1-(phenylsulfonyl)-",,O=[S](=O)(N1CCCCC1)c2ccccc2,VRYWBMTXKFQBCA-UHFFFAOYSA-N,-2.5365
4-chloro-2-nitroaniline,,Nc1ccc(Cl)cc1[N+]([O-])=O,PBGKNXWGYQPUJK-UHFFFAOYSA-N,-2.538
2-pentene,,CC\C=C/C,QMMOXUPEWRXHJS-HYXAFXHYSA-N,-2.5384
"acetamide, 2-(benzoyloxy)-n-propyl-",,CCCNC(=O)COC(=O)c1ccccc1,OLCZSUFMDPGDIL-UHFFFAOYSA-N,-2.5387
2-nitroso-1-naphthol,,Oc1c(ccc2ccccc12)N=O,SYUYTOYKQOAVDW-UHFFFAOYSA-N,-2.5395
n-isonicotinoyl-n'-benzoylhydrazine;  n-benzoyl-n'-isonicotinoylhydrazine,,O=C(NNC(=O)C1=CC=NC=C1)C2=CC=CC=C2,UHMAPOLDLKSAOI-UHFFFAOYSA-N,-2.54
6-acetyloxymethylthio-9-acetyloxymethylpurine,,CC(=O)OCSC1=NC=NC2=C1N=C[N]2COC(C)=O,BGNHXVMZTVHITP-UHFFFAOYSA-N,-2.54
trans-2-pentene,,CCC=CC,QMMOXUPEWRXHJS-UHFFFAOYSA-N,-2.54
7-aminonaphthalene-1-sulfonic acid,,NC1=CC2=C(S(=O)(=O)O)C=CC=C2C=C1,FYVOTMMSGKWFPK-UHFFFAOYSA-N,-2.54
"8-hydroxy-5,7-dinitronaphthalene-2-sulfonic acid",,C1=CC2=C(C=C1S(=O)(=O)O)C(=C(C=C2[N+](=O)[O-])[N+](=O)[O-])O,FCQJEPASRCXVCB-UHFFFAOYSA-N,-2.54
disulfoton sulfone,,CCO[P](=S)(OCC)SCC[S](=O)(=O)CC,BKVJOVPVLOJPKJ-UHFFFAOYSA-N,-2.5403
o-fluorobenzyl chloride,,Fc1ccccc1CCl,MOBRMRJUKNQBMY-UHFFFAOYSA-N,-2.541
"phosphorodithioic acid, s-[2-(ethylsulfonyl)ethy",,CC[S](=O)(=O)CCS[P](=S)(OC)OC,GAXMYYJSILFZLT-UHFFFAOYSA-N,-2.5415
m-chlorobenzoic acid,,OC(=O)c1cccc(Cl)c1,LULAYUGMBFYYEX-UHFFFAOYSA-N,-2.5415
5-hydroxyquinoline,,[O-]c1cccc2[nH+]cccc12,GYESAYHWISMZOK-UHFFFAOYSA-N,-2.5417
"1h-azepine, hexahydro-1-[(benzoyloxy)acetyl]-",,O=C(COC(=O)c1ccccc1)N2CCCCCC2,FZBXGZBXWFNCQY-UHFFFAOYSA-N,-2.5421
"6-({bis[(5-carboxypentyl)amino]-1,3,5-triazin-2-yl}amino)hexanoic acid",,OC(=O)CCCCCNc1nc(NCCCCCC(O)=O)nc(NCCCCCC(O)=O)n1,BKKWPPMEXIXECW-UHFFFAOYSA-N,-2.542361308
Dabigatran Etexilate,CAS211915-06-9,CCCCCCOC(=O)NC(=N)c1ccc(NCc2nc3cc(C(=O)N(CCC(=O)OCC)c4ccccn4)ccc3n2C)cc1,KSGXQBZTULBEEQ-UHFFFAOYSA-N,-2.54
sulfamethomidine,,COc1cc(N[S](=O)(=O)c2ccc(N)cc2)nc(C)n1,QKLSCPPJEVXONT-UHFFFAOYSA-N,-2.543
Erythromycin (Base),CAS114-07-8,CC[C@H]1OC(=O)[C@H](C)[C@@H](O[C@H]2C[C@@](C)(OC)[C@@H](O)[C@H](C)O2)[C@H](C)[C@@H](O[C@@H]2O[C@H](C)C[C@H](N(C)C)[C@H]2O)[C@](C)(O)C[C@@H](C)C(=O)[C@H](C)[C@@H](O)[C@]1(C)O,ULGZDMOVFRHVEP-RWJQBGPGSA-N,-2.54
m-fluorobenzyl chloride,,Fc1cccc(CCl)c1,XBDXMDVEZLOGMC-UHFFFAOYSA-N,-2.5436
p-fluorobenzyl chloride,,Fc1ccc(CCl)cc1,IZXWCDITFDNEBY-UHFFFAOYSA-N,-2.5442
butyl 2-methylprop-2-enoate,,CCCCOC(=O)C(C)=C,SOGAXMICEFXMKE-UHFFFAOYSA-N,-2.544367455
pent-2-ene,,CC\C=C\C,QMMOXUPEWRXHJS-HWKANZROSA-N,-2.544904806
1-(1-benzofuran-2-yl)ethan-1-one,,CC(=O)c1oc2ccccc2c1,YUTFQTAITWWGFH-UHFFFAOYSA-N,-2.548488397
benzhydrol,,OC(c1ccccc1)c2ccccc2,QILSFLSDHQAZET-UHFFFAOYSA-N,-2.5494
"imidodicarbonimidic diamide, n-2-naphthalenyl-",,NC(N)=NC(N)=Nc1ccc2ccccc2c1,RDLIBCPWPNCFBW-UHFFFAOYSA-N,-2.5497
"phthalide, 3-ethyl-6-nitro-",,CCC1OC(=O)c2cc(ccc12)[N+]([O-])=O,OTOYVMKWIRQFSC-UHFFFAOYSA-N,-2.55
n-methyl-n-(2-(2'-acetoxy)benzoyloxy)acetylglycine ethyl ester,,CCOC(=O)CN(C)C(=O)COC(=O)C1=CC=CC=C1OC(C)=O,ZEMRQSGEJWXCQZ-UHFFFAOYSA-N,-2.55
n4-[(2-phenylsulfonylamino)pyrimidin-4-yl]sulfanilamide; 2-(phenylsulfonylamino)-4-(4-sulfamoylphenylamino)pyrimidine,,N[S](=O)(=O)C1=CC=C(NC2=NC(=NC=C2)N[S](=O)(=O)C3=CC=CC=C3)C=C1,RVUMZJPBSNPRBS-UHFFFAOYSA-N,-2.55
n-phosphorylated cimicoxib;  n-[4-(4-chloro-5-(3-fluoro-4-methoxyphenyl)imidazol-1-yl)phenylsulfonyl]phosphoramidic acid,,COC1=C(F)C=C(C=C1)C2=C(Cl)N=C[N]2C3=CC=C(C=C3)[S](=O)(=O)N[P](O)(O)=O,DEOMXAFNZXYCBQ-UHFFFAOYSA-N,-2.55
methyl (1-phenylsulfonyl) cyclopentane carboxyla,,COC(=O)C1(CCCC1)[S](=O)(=O)c2ccccc2,AXNXBYAMXGSWLR-UHFFFAOYSA-N,-2.5501
2-methylcyclohexyl acetate,,CC1CCCCC1OC(C)=O,AKIIJALHGMKJEJ-UHFFFAOYSA-N,-2.550297857
"2-chlorobuta-1,3-diene",,ClC(=C)C=C,YACLQRRMGMJLJV-UHFFFAOYSA-N,-2.550925455
"4-allyl-1,2-dimethoxybenzene",,COc1ccc(CC=C)cc1OC,ZYEMGPIYFIJGTP-UHFFFAOYSA-N,-2.55201324
Sparfloxacin,CAS111542-93-9,C[C@H]1CN(c2c(F)c(N)c3c(=O)c(C(=O)O)cn(C4CC4)c3c2F)C[C@@H](C)N1.Cl,MWRGHMXZGOQQRA-UFIFRZAQSA-N,-2.55
"3,4-hexanedione, dioxime",,CC\C(NO)=C(\CC)N=O,XYYHQWXNCDZZLY-AATRIKPKSA-N,-2.5525
"Glycerol, propoxylated, esters with acrylic acid",,C=CC(=O)OCCCOCC(COCCCOC(=O)C=C)OCCCOC(=O)C=C,DMQYPVOQAARSNF-UHFFFAOYSA-N,-2.552747282
"1,2-dibromo-1-chloroethane",,ClC(Br)CBr,DVTKTUMRXCKEEG-UHFFFAOYSA-N,-2.5546
ethenylbenzene,,C=Cc1ccccc1,PPBRXRYQALVLMV-UHFFFAOYSA-N,-2.555269616
Iloprost,CAS73873-87-7,CC#CCC(C)[C@H](O)/C=C/[C@@H]1[C@H]2C/C(=C/CCCC(=O)O)C[C@H]2C[C@H]1O,HIFJCPQKFCZDDL-ACWOEMLNSA-N,-2.56
"3,5,5-trimethylhexan-1-ol",,CC(CCO)CC(C)(C)C,BODRLKRKPXBDBN-UHFFFAOYSA-N,-2.557079916
mitomycin c,,COC12C(COC(N)=O)C3=C(N1CC4NC24)C(=O)C(=C(N)C3=O)C,NWIBSHFKIJFRCO-UHFFFAOYSA-N,-2.56
"prometon;  2,4-bis(isopropylamino)-6-methoxy-1,3,5-triazine",,COC1=NC(=NC(=N1)NC(C)C)NC(C)C,ISEUFVQQFVOBCY-UHFFFAOYSA-N,-2.56
"(n,n-diethyl)carbamoylmethyl  salicylate;  n,n-diethyl-2-(salicyloyloxy)acetamide",,CCN(CC)C(=O)COC(=O)C1=C(O)C=CC=C1,SHQRMVJGVCBCEC-UHFFFAOYSA-N,-2.56
1-(acetoxymethyl)allopurinol,,CC(=O)OC[N]1N=CC2=C1N=CNC2=O,UIJGCCLNZYPVFJ-UHFFFAOYSA-N,-2.56
pyracarbolid;  sicarol,,CC1=C(CCCO1)C(=O)NC2=CC=CC=C2,YPCALTGLHFLNGA-UHFFFAOYSA-N,-2.56
2-amino-3-(2-amino-3-hydroxy-3-oxopropyl)sulfanylpropanoic acid,,NC(CSCC(N)C(=O)O)C(=O)O,DWPCPZJAHOETAG-UHFFFAOYSA-N,-2.56
"5-(2-hydroxyethyl)-5-(3-methylbutyl)-2-sulfanylidene-1,3-diazinane-4,6-dione",,CC(C)CCC1(CCO)C(=O)NC(=S)NC1=O,ODBYBGYTXPHFFZ-UHFFFAOYSA-N,-2.56
2-isopropyl-5-methylcyclohexanol,,CC(C)[C@@H]1CC[C@@H](C)C[C@@H]1O,NOOLISFMXDJSKH-UTLUCORTSA-N,-2.560404377
Primidone,CAS125-33-7,CCC1(c2ccccc2)C(=O)NCNC1=O,DQMZLTXERSFNPB-UHFFFAOYSA-N,-2.56
proglinazine ethyl,,CCOC(=O)CNc1nc(Cl)nc(NC(C)C)n1,QQADVTSTCZBBOE-UHFFFAOYSA-N,-2.5622
"acetamide, 2-(benzoyloxy)-n,n-bis(2-propenyl)-",,C=CCN(CC=C)C(=O)COC(=O)c1ccccc1,KIBXYDHXHWRNTP-UHFFFAOYSA-N,-2.5626
"1-N-phenylbenzene-1,4-diamine",,Nc1ccc(Nc2ccccc2)cc1,ATGUVEKSASEFFO-UHFFFAOYSA-N,-2.563130476
2-phenoxyethyl prop-2-enoate,,C=CC(=O)OCCOc1ccccc1,RZVINYQDSSQUKO-UHFFFAOYSA-N,-2.563625713
1-chloro-2-nitrobenzene,,[O-][N+](=O)c1ccccc1Cl,BFCFYVKQTRLZHA-UHFFFAOYSA-N,-2.563966491
Metoxuron,,COc1ccc(NC(=O)N(C)C)cc1Cl,DSRNRYQBBJQVCW-UHFFFAOYSA-N,-2.564
"ethane, 1,2-dibromo-1,2-dichloro-",,ClC(Br)C(Cl)Br,RJMDFMUPJANPGX-UHFFFAOYSA-N,-2.5644
"hydrocinnamic acid, .alpha.-ethylidene-",,CC=C(Cc1ccccc1)C(O)=O,LUHNRLWMHQQYAM-UHFFFAOYSA-N,-2.5648
desmetryne,,CNc1nc(NC(C)C)nc(SC)n1,HCRWJJJUKUVORR-UHFFFAOYSA-N,-2.5656
"disodium 3-[(E)-2-[2,4-bis(2-methylphenoxy)phenyl]diazen-1-yl]-4-hydroxy-5-(4-methylbenzenesulfonamido)naphthalene-2,7-disulfonate",,[Na+].[Na+].Cc1ccc(cc1)[S](=O)(=O)Nc2cc(cc3C=C(C(=N/Nc4ccc(Oc5ccccc5C)cc4Oc6ccccc6C)\C(=O)c23)[S]([O-])(=O)=O)[S]([O-])(=O)=O,NCGGOCRZQAFNTH-HWXVZJLZSA-L,-2.566969077
1-pentyl nitrate,,CCCCCO[N+]([O-])=O,HSNWZBCBUUSSQD-UHFFFAOYSA-N,-2.568
bromobenzene,,Brc1ccccc1,QARVLSVVCXYDNA-UHFFFAOYSA-N,-2.568561457
"phosphonic acid, hexyl-, diethyl ester",,CCCCCC[P](=O)(OCC)OCC,VVUJWLDQIIFQHI-UHFFFAOYSA-N,-2.5687
Thioridazine,CAS50-52-2,CSc1ccc2c(c1)N(CCC1CCCCN1C)c1ccccc1S2,KLBQZWRITKRQQV-UHFFFAOYSA-N,-2.57
4-(propoxycarbonyloxy)acetanilide,,CCCOC(=O)OC1=CC=C(NC(C)=O)C=C1,AHYLFQRWOBJBTE-UHFFFAOYSA-N,-2.57
5-methyl-2-(propan-2-yl)cyclohexan-1-ol,,CC(C)[C@@H]1CC[C@@H](C)C[C@H]1O,NOOLISFMXDJSKH-KXUCPTDWSA-N,-2.570623543
"2h-1,4-benzoxazin-3(4h)-one",,O=C1COc2ccccc2N1,QRCGFTXRXYMJOS-UHFFFAOYSA-N,-2.5716
Clarithromycin,CAS81103-11-9,CC[C@H]1OC(=O)[C@H](C)[C@@H](O[C@H]2C[C@@](C)(OC)[C@@H](O)[C@H](C)O2)[C@H](C)[C@@H](O[C@@H]2O[C@H](C)C[C@H](N(C)C)[C@H]2O)[C@](C)(OC)C[C@@H](C)C(=O)[C@H](C)[C@@H](O)[C@]1(C)O,AGOYDEPGAOXOCK-KCBOHYOISA-N,-2.57
arsine,,[As],WLQSSCFYCXIQDZ-UHFFFAOYSA-N,-2.573579366
amobarbital,,CCC1(CCC(C)C)C(=O)NC(=O)NC1=O,VIROVYVQCGLCII-UHFFFAOYSA-N,-2.5743
10h-phenothiazin-3-ol,,Oc1ccc2Nc3ccccc3Sc2c1,JAMWHXUWMDVHJF-UHFFFAOYSA-N,-2.5748
secbumeton,,CCNc1nc(NC(C)CC)nc(OC)n1,ZJMZZNVGNSWOOM-UHFFFAOYSA-N,-2.575
"1,3-benzenediol, 4-cyclohexyl-",,Oc1ccc(C2CCCCC2)c(O)c1,LSEHCENPUMUIKC-UHFFFAOYSA-N,-2.5763
methyl 4-methylbenzoate,,COC(=O)c1ccc(C)cc1,QSSJZLPUHJDYKF-UHFFFAOYSA-N,-2.576720352
"4-amino-5-methoxy-N,2-dimethylbenzenesulfonamide",,CN[S](=O)(=O)c1cc(OC)c(N)cc1C,GWSQAGVGSHXRJK-UHFFFAOYSA-N,-2.576943359
carminic acid,,Cc1c(C(O)=O)c(O)cc2C(=O)c3c(O)c(O)c([C@H]4O[C@H](CO)[C@@H](O)[C@H](O)[C@H]4O)c(O)c3C(=O)c12,DGQLVPJVXFOQEV-NGOCYOHBSA-N,-2.5784
carmine,,Cc1c(C(O)=O)c(O)cc2C(=O)c3c(O)c(O)c(C4OC(CO)C(O)C(O)C4O)c(O)c3C(=O)c12,DGQLVPJVXFOQEV-UHFFFAOYSA-N,-2.5784
"propane, 1,2,2,3-tetrachloro-",,ClCC(Cl)(Cl)CCl,UDPHJTAYHSSOQB-UHFFFAOYSA-N,-2.5785
ethoxycarbonylmetyl  acetylsalicylate;  2-(2-acetoxybenzoyloxy)acetic acid ethyl ester,,CCOC(=O)COC(=O)C1=CC=CC=C1OC(C)=O,HFSBGVJICLMJRK-UHFFFAOYSA-N,-2.58
"l-365,209, analog 10;  (cyclic hexapeptide)",,CCC(C)C1NC(=O)C(CC2=C[NH]C3=C2C=CC=C3)NC(=O)C4CCCN4C(=O)C(CC5=C[NH]C=N5)NC(=O)C6CCCCN6C(=O)C7CCCCN7C1=O,WCNGAVKBHXZVJO-UHFFFAOYSA-N,-2.58
2-chloro-1-(4-hydroxy-2-methyl-5-propan-2-ylphenyl)ethanone,,CC1=C(C(=O)CCl)C=C(C(C)C)C(O)=C1,KJLQNABOFYSCRN-UHFFFAOYSA-N,-2.58
5-Nonanone,,CCCCC(=O)CCCC,WSGCRAOTEDLMFQ-UHFFFAOYSA-N,-2.58
Di-n-propylsulfide,,CCCSCCC,ZERULLAPCVRMCO-UHFFFAOYSA-N,-2.58
"2h-purine-2-thione, 1,3-dihydro-",,S=C1Nc2nc[nH]c2C=N1,HDBQZGJWHMCXIL-UHFFFAOYSA-N,-2.5803
tetraazanium dioxido-dioxomolybdenum,,[NH4+].[NH4+].[NH4+].[NH4+].[O-][Mo]([O-])(=O)=O.[O-][Mo]([O-])(=O)=O,NZRDUKISIQWGIN-UHFFFAOYSA-R,-2.580479862
"1,2-cyclodecanedione, dioxime",,ON=C1CCCCCCCCC1=NO,SUIIPPMGDURFRE-UHFFFAOYSA-N,-2.5813
"3,5-Xylyl methylcarbamate",,CNC(=O)Oc1cc(C)cc(C)c1,CVQODEWAPZVVBU-UHFFFAOYSA-N,-2.5813
(ethenyloxy)cyclohexane,,C=COC1CCCCC1,VGIYPVFBQRUBDD-UHFFFAOYSA-N,-2.582541974
sulfameter,,COc1cnc(N[S](=O)(=O)c2ccc(N)cc2)nc1,GPTONYMQFTZPKC-UHFFFAOYSA-N,-2.5843
2-ethylthiophene,,CCc1sccc1,JCCCMAAJYSNBPR-UHFFFAOYSA-N,-2.5846
4-formyl-2-methoxyphenyl 2-methylpropanoate,,COc1cc(C=O)ccc1OC(=O)C(C)C,BGKAKRUFBSTALK-UHFFFAOYSA-N,-2.588667606
"menthane, monohydroperoxy derivative",,CC(C)C1CCC(C)CC1OO,OZTWDFWAMMUDHQ-UHFFFAOYSA-N,-2.588821642
2-(acetyloxy)-4-bromo-benzoic acid,,CC(=O)Oc1ccc(Br)cc1C(O)=O,VRJBEVQGJOSGOX-UHFFFAOYSA-N,-2.5895
4-hexylresorcinol,,CCCCCCc1ccc(O)cc1O,WFJIVOKAWHGMBH-UHFFFAOYSA-N,-2.5895
5-isopropyl-5-(3-methyl-2-butenyl)barbituric  acid,,CC(C)C1(CC=C(C)C)C(=O)NC(=O)NC1=O,ZCDHRBAYNFWZBH-UHFFFAOYSA-N,-2.59
"4-hydroxy-5,6-dihydro-4h-2-sulfamoylthieno[2,3-b]thiopyran",,N[S](=O)(=O)C1=CC2=C(SCCC2O)S1,QUBSMEXIPLOOMC-UHFFFAOYSA-N,-2.59
"3-(aziridin-1-yl)-4,6-dinitro-n,n-(diethyl)benzamide",,CCN(CC)C(=O)C1=CC(=C(C=C1[N+]([O-])=O)[N+]([O-])=O)N2CC2,OTDNTVFTLSWXLS-UHFFFAOYSA-N,-2.59
2-(carboxymethylamino)-3-(4-hydroxyphenyl)propanoic acid,,O=C(O)CNC(CC1=CC=C(O)C=C1)C(=O)O,RNMSZIWXOVWGMI-UHFFFAOYSA-N,-2.59
trilithium(1+) ion phosphate,,[Li+].[Li+].[Li+].[O-][P]([O-])([O-])=O,TWQULNDIKKJZPH-UHFFFAOYSA-K,-2.590925857
4-nonanol,,CCCCCC(O)CCC,IXUOEGRSQCCEHB-UHFFFAOYSA-N,-2.591
"(1R-(1alpha,2beta,4beta,6alpha))-2,2,7-Trimethyl-3-oxatricyclo(4.1.1.02,4)octane",,CC1(C)[C@H]2C[C@@H]3O[C@]3(C)[C@@H]1C2,NQFUSWIGRKFAHK-BDNRQGISSA-N,-2.593688492
alpha-pinene oxide,,CC1(C)C2CC3OC3(C)C1C2,NQFUSWIGRKFAHK-UHFFFAOYSA-N,-2.5937
2-(4-chloro-2-fluorophenyl)acetonitrile,,Fc1cc(Cl)ccc1CC#N,RTQOANCZEAIDEZ-UHFFFAOYSA-N,-2.59390625
cyolane,,CCO[P](=O)(OCC)N=C1SCCS1,ILBONRFSLATCRE-UHFFFAOYSA-N,-2.5941
3-({[({[(2-ethylhexyl)oxy]carbonyl}peroxy)carbonyl]oxy}methyl)heptane,,CCCCC(CC)COC(=O)OOC(=O)OCC(CC)CCCC,ZACVGCNKGYYQHA-UHFFFAOYSA-N,-2.595175443
"1,3-dichloro-5,5-dimethylhydantoin",,CC1(C)N(Cl)C(=O)N(Cl)C1=O,KEQGZUUPPQEDPF-UHFFFAOYSA-N,-2.5955
nihydrazone,,CC(=O)N/N=C/c1oc(cc1)[N+]([O-])=O,ACFHHZJOAUZSJU-XBXARRHUSA-N,-2.5958
ancymidol,,COc1ccc(cc1)C(O)(C2CC2)c3cncnc3,HUTDUHSNJYTCAR-UHFFFAOYSA-N,-2.5959
"1,3-diphenyl-1-triazene",,N(N=Nc1ccccc1)c2ccccc2,ALIFPGGMJDWMJH-UHFFFAOYSA-N,-2.596
2-p-sulfanilylanilinoethanol,,Nc1ccc(cc1)[S](=O)(=O)c2ccc(NCCO)cc2,LLBKEUTWJFQRJU-UHFFFAOYSA-N,-2.597
"2,4-dinitrophenol",,Oc1ccc(cc1[N+]([O-])=O)[N+]([O-])=O,UFBJCMHMOXMLKC-UHFFFAOYSA-N,-2.5976
4-nitrophenyl acetate,,CC(=O)Oc1ccc(cc1)[N+]([O-])=O,QAUUDNIGJSLPSX-UHFFFAOYSA-N,-2.599256825
5-methyl-5-(3-methyl-2-butenyl)barbituric  acid,,CC(C)=CCC1(C)C(=O)NC(=O)NC1=O,CVWHRDJDXCEZGH-UHFFFAOYSA-N,-2.6
hydralazine;  1-hydrazinophthalazine,,NNC1=NN=CC2=C1C=CC=C2,RPTUSVTUFVMDQK-UHFFFAOYSA-N,-2.6
antazoline,,C1CN=C(CN(CC2=CC=CC=C2)C3=CC=CC=C3)N1,REYFJDPCWQRWAA-UHFFFAOYSA-N,-2.6
"l-365,209 -analog 12,  (cyclic hexapeptide)",,CCC(C)C1NC(=O)C(CC2=C[NH]C3=C2C=CC=C3)NC(=O)C4CCCN4C(=O)C(CC5=C[NH]C=N5)NC(=O)C6CCCCN6C(=O)C7CCC=NN7C1=O,KHZMWMBLYZHOQJ-UHFFFAOYSA-N,-2.6
N-(3-oxo-1H-2-benzofuran-5-yl)acetamide,,CC(=O)NC1=CC2=C(C=C1)COC2=O,CLPDGZLMLHDCOY-UHFFFAOYSA-N,-2.6
6-fluoro-1-(1-fluoro-2-methylpropan-2-yl)-4-oxo-7-piperazin-1-ylquinoline-3-carboxylic acid,,CC(C)(CF)N1C=C(C(=O)O)C(=O)C2=C1C=C(N1CCNCC1)C(F)=C2,ARXWHNLHTJUEBG-UHFFFAOYSA-N,-2.6
3-Fluoro-n-hydroxy-n-phenylbenzamide,,O=C(C1=CC(F)=CC=C1)N(O)C1=CC=CC=C1,VAOSSGQUPGENMP-UHFFFAOYSA-N,-2.6
"2,4-dichlorobenzoic acid",,OC(=O)c1ccc(Cl)cc1Cl,ATCRIUVQKHMXSH-UHFFFAOYSA-N,-2.6003
"propanoic acid, 2-(2,4-dichlorophenoxy)-, (r)-",,C[C@@H](Oc1ccc(Cl)cc1Cl)C(O)=O,MZHCENGPTKEIGP-RXMQYKEDSA-N,-2.6003
"thiocyanic acid, 4-aminophenyl ester",,Nc1ccc(SC#N)cc1,NJYFRQQXXXRJHK-UHFFFAOYSA-N,-2.6015
"calcium 2,3-dihydroxybutanedioate",,[Ca++].O[C@H]([C@@H](O)C(O)=O)C(O)=O,GUPPESBEIQALOS-ZVGUSBNCSA-N,-2.602434694
"8-quinazolinol, 4-methyl-",,Cc1ncnc2c(O)cccc12,RSHKEEMIDCYLTC-UHFFFAOYSA-N,-2.6025
6-phenylcaproic acid,,OC(=O)CCCCCc1ccccc1,JTXZPQIXIXYMDY-UHFFFAOYSA-N,-2.6026
Imiquimod,CAS99011-02-6,CC(C)Cn1cnc2c(N)nc3ccccc3c21,DOUYETYNHWVLEO-UHFFFAOYSA-N,-2.6
"disodium 4,4'-[(2,4-dihydroxy-1,3-phenylene)didiazene-2,1-diyl]dinaphthalene-1-sulfonate",,[Na+].[Na+].[O-][S](=O)(=O)c1ccc(N\N=C\2C=CC(=O)C(=N/Nc3ccc(c4ccccc34)[S]([O-])(=O)=O)\C2=O)c5ccccc15,UTIACSXEVKXHPT-XALLQCHJSA-L,-2.603841144
d-tyrosine,,N[C@H](Cc1ccc(O)cc1)C(O)=O,OUYCCCASQSFEME-MRVPVSSYSA-N,-2.6049
azimsulfuron,,COc1cc(OC)nc(NC(=O)N[S](=O)(=O)c2n(C)ncc2c3nnn(C)n3)n1,MAHPNPYYQAIOJN-UHFFFAOYSA-N,-2.6066
"butanoic acid, 1,2-ethanediyl ester",,CCCC(=O)OCCOC(=O)CCC,SFTRWCBAYKQWCS-UHFFFAOYSA-N,-2.6069
benazolin,,OC(=O)CN1C(=O)Sc2cccc(Cl)c12,HYJSGOXICXYZGS-UHFFFAOYSA-N,-2.6087
"benzoic acid, 4-amino-, 1-methylethyl ester",,CC(C)OC(=O)c1ccc(N)cc1,JWCPZKNBPMSYND-UHFFFAOYSA-N,-2.6099
propoxyphene,,CCC(=O)OC(CC1=CC=CC=C1)(C(C)CN(C)C)C2=CC=CC=C2,XLMALTXPSGQGBX-UHFFFAOYSA-N,-2.61