Name,ID,SMILES,inchi,LogS
o-[(4-morpholinomethyl)benzoyl]metronidazole,,CC1=NC=C([N]1CCOC(=O)C2=CC=C(CN3CCOCC3)C=C2)[N+]([O-])=O,QFLZEYUXHIFILY-UHFFFAOYSA-N,-2.89
"3,4-Dideoxy-2,5-di-S-methyl-2,5-dithiohexaric acid",,CSC(CCC(SC)C(=O)O)C(=O)O,LOXRKSOJHDUMJE-UHFFFAOYSA-N,-2.89
N-Hydroxy-2-phenyl-2-propylpentanamide,,CCCC(CCC)(C(=O)NO)C1=CC=CC=C1,HTXPRECVNAFGMW-UHFFFAOYSA-N,-2.89
"2-acetamido-3-(3,4-dichlorophenyl)sulfanylpropanoic acid",,CC(=O)NC(CSC1=CC(Cl)=C(Cl)C=C1)C(=O)O,JYWAYDDGOPHFIS-UHFFFAOYSA-N,-2.89
pefurazoate,,CCC(N(Cc1occc1)C(=O)n2ccnc2)C(=O)OCCCC=C,WBTYBAGIHOISOQ-UHFFFAOYSA-N,-2.8919
"trimethoxy(3,3,4,4,5,5,6,6,7,7,8,8,8-tridecafluorooctyl)silane",,CO[Si](CCC(F)(F)C(F)(F)C(F)(F)C(F)(F)C(F)(F)C(F)(F)F)(OC)OC,BVQYIDJXNYHKRK-UHFFFAOYSA-N,-2.892356214
populin,,OCc1ccccc1O[C@@H]2O[C@H](COC(=O)c3ccccc3)[C@@H](O)[C@H](O)[C@H]2O,HHSKNLJWHGXWPK-BFMVXSJESA-N,-2.8925
Praziquantel,CAS55268-74-1,O=C(C1CCCCC1)N1CC(=O)N2CCc3ccccc3C2C1,FSVJFNAIGNNGKK-UHFFFAOYSA-N,-2.89
metobromuron,,CON(C)C(=O)Nc1ccc(Br)cc1,WLFDQEVORAMCIM-UHFFFAOYSA-N,-2.895
terbufos sulfone,,CCO[P](=S)(OCC)SC[S](=O)(=O)C(C)(C)C,DWZSTEUTHNUVQD-UHFFFAOYSA-N,-2.8951
"2-furaldehyde, 5-nitro-, 2-pentylsemicarbazone",,CCCCCN(N=Cc1oc(cc1)[N+]([O-])=O)C(N)=O,WWWBXFHCAYRVDH-UHFFFAOYSA-N,-2.8971
bis(trimethyl(tetradecyl)azanium) oxalate,,CCCCCCCCCCCCCC[N+](C)(C)C.CCCCCCCCCCCCCC[N+](C)(C)C.[O-]C(=O)C([O-])=O,XNYQOAOGCKKCNI-UHFFFAOYSA-L,-2.898070996
Digoxin,CAS20830-75-5,C[C@H]1O[C@@H](O[C@H]2[C@@H](O)C[C@H](O[C@H]3[C@@H](O)C[C@H](O[C@H]4CC[C@]5(C)[C@H]6C[C@@H](O)[C@]7(C)[C@@H](C8=CC(=O)OC8)CC[C@]7(O)[C@@H]6CC[C@@H]5C4)O[C@@H]3C)O[C@@H]2C)C[C@H](O)[C@@H]1O,LTMHDMANZUZIPE-PUGKRICDSA-N,-2.9
metaldehyde (tetramer),,CC1OC(C)OC(C)OC(C)O1,GKKDCARASOJPNG-UHFFFAOYSA-N,-2.8997
"phosphonic acid, phenyl, di-2-propenyl ester",,C=CCO[P](=O)(OCC=C)c1ccccc1,YSRMRWIQPVDQBV-UHFFFAOYSA-N,-2.8999
danofloxacin,,CN1CC2CC1CN2C3=CC4=C(C=C3F)C(=O)C(=CN4C5CC5)C(O)=O,QMLVECGLEOSESV-UHFFFAOYSA-N,-2.9
"2-sulfamoyl-5-phenylsulfonamido-1,3,4-thiadiazole",,N[S](=O)(=O)C1=NN=C(N[S](=O)(=O)C2=CC=CC=C2)S1,PWDGTQXZLNDOKS-UHFFFAOYSA-N,-2.9
danofloxacin,,C[N@]1C[C@@H]2C[C@H]1CN2c1c(cc2c(n(cc(C(=O)O)c2=O)C2CC2)c1)F,QMLVECGLEOSESV-RYUDHWBXSA-N,-2.9
naloxone,,O[C@]1([C@H](N(CC=C)CC2)C3)[C@@]42C5=C3C=CC(O)=C5O[C@H]4C(CC1)=O,UZHSEJADLWPNLE-GRGSLBFTSA-N,-2.9
phenolphthalein,PubChemCID4764,C1=CC=C2C(=C1)C(=O)OC2(C3=CC=C(C=C3)O)C4=CC=C(C=C4)O,KJFMBFZCATUALV-UHFFFAOYSA-N,-2.9
"1-pentene, 5-isothiocyanato-",,C=CCCCN=C=S,DBISBKDNOKIADM-UHFFFAOYSA-N,-2.9004
4-piperidin-4-ylmorpholine,,C1CC(CCN1)N2CCOCC2,YYBXNWIRMJXEQJ-UHFFFAOYSA-N,-2.902722822
"[(2S,4R)-2-(2,4-dichlorophenyl)-2-(1H-1,2,4-triazol-1-ylmethyl)-1,3-dioxolan-4-yl]methanol",,OC[C@@H]1CO[C@](Cn2cncn2)(O1)c3ccc(Cl)cc3Cl,NKUOWQPBYUKRIM-ZWNOBZJWSA-N,-2.905955068
"cyclopentaneacetic acid, 3-oxo-2-pentyl-, methyl",,CCCCCC1C(CCC1=O)CC(=O)OC,KVWWIYGFBYDJQC-UHFFFAOYSA-N,-2.9076
"methyl 2,6,6-trimethylcyclohex-2-ene-1-carboxylate",,COC(=O)C1C(=CCCC1(C)C)C,NVAGRWXDIIKUBU-UHFFFAOYSA-N,-2.908515996
ethyl b-phenylpropionate,,CCOC(=O)CCc1ccccc1,JAGZUIGGHGTFHO-UHFFFAOYSA-N,-2.9086
"(phosphonooxy)phosphonic acid; 1,3,5-triazine-2,4,6-triamine",,Nc1nc(N)nc(N)n1.O[P](O)(=O)O[P](O)(O)=O,XZTOTRSSGPPNTB-UHFFFAOYSA-N,-2.90897944
n-isonicotinoyl-n'-octanoylhydrazine,,CCCCCCCC(=O)NNC(=O)C1=CC=NC=C1,SYRLNYMGLYCYJS-UHFFFAOYSA-N,-2.91
1-amino-4-naphthalenesulfonic  acid;  4-amino-1-naphthalenesulfonic acid,,NC1=CC=C(C2=C1C=CC=C2)[S](O)(=O)=O,NRZRRZAVMCAKEP-UHFFFAOYSA-N,-2.91
nifurtoinol;  3-(hydroxymethyl)nitrofurantoin,,OCN1C(=O)CN(/N=C/C2=CC=C(O2)[N+]([O-])=O)C1=O,UIDWQGRXEVDFCA-XCVCLJGOSA-N,-2.91
"2-sulfamoyl-5-(2,4-dinitrobenzenesulfonamido)-1,3,4-thiadiazole",,N[S](=O)(=O)C1=NN=C(N[S](=O)(=O)C2=C(C=C(C=C2)[N+]([O-])=O)[N+]([O-])=O)S1,BHTKPRRBITUJME-UHFFFAOYSA-N,-2.91
Sulfisoxazole,,O=S(=O)(Nc(onc1C)c1C)c(ccc(N)c2)c2,NHUHCSRWZMLRLA-UHFFFAOYSA-N,-2.91
"1,1-dimethyl-3-oxo-2-benzofuran-5-carbonitrile",,CC1(C)OC(=O)C2=C1C=CC(C#N)=C2,SHMZHRUWYIKGBF-UHFFFAOYSA-N,-2.91
2-amino-3-[5-(2-amino-3-hydroxy-3-oxopropyl)sulfanylpentylsulfanyl]propanoic acid,,NC(CSCCCCCSCC(N)C(=O)O)C(=O)O,ATZQWAYWRBSTCE-UHFFFAOYSA-N,-2.91
"2-(5-benzyl-2,4-dioxo-3-phenylimidazolidin-1-yl)acetic acid",,O=C(O)CN1C(=O)N(C2=CC=CC=C2)C(=O)C1CC1=CC=CC=C1,YJLSYXATLKWVRI-UHFFFAOYSA-N,-2.91
"4-amino-N-(4-methyl-1,3-thiazol-2-yl)benzenesulfonamide",,CC1=CSC(NS(=O)(=O)C2=CC=C(N)C=C2)=N1,KJVQYDYPDFFJMP-UHFFFAOYSA-N,-2.91
"6-(hydroxymethyl)-4-octylsulfanyloxane-2,3,5-triol",,CCCCCCCCSC1C(O)C(O)OC(CO)C1O,URYSHBMTTTXBAR-UHFFFAOYSA-N,-2.91
3-indolebutyric acid,,OC(=O)CCCc1c[nH]c2ccccc12,JTEDVYBZBROSJT-UHFFFAOYSA-N,-2.9101
Bromocriptine,CAS25614-03-3,CC(C)C[C@H]1C(=O)N2CCC[C@H]2[C@]2(O)O[C@](NC(=O)[C@@H]3C=C4c5cccc6[nH]c(Br)c(c56)C[C@H]4N(C)C3)(C(C)C)C(=O)N12,OZVBMTJYIDMWIL-AYFBDAFISA-N,-2.91
2-hydroxy-4-methylbenzamide,,Cc1ccc(C(N)=O)c(O)c1,OLEJYVBTZPUQDX-UHFFFAOYSA-N,-2.917000159
"1,1-dimethoxyoctane",,CCCCCCCC(OC)OC,BZOOCKAFKVYAOZ-UHFFFAOYSA-N,-2.918005419
"(2,4-dichlorophenyl)acetic acid",,OC(=O)Cc1ccc(Cl)cc1Cl,GXMWLJKTGBZMBH-UHFFFAOYSA-N,-2.91914164
trichothecin,,C\C=C/C(=O)O[C@@H]1C[C@H]2O[C@@H]3C=C(C)C(=O)C[C@]3(C)[C@]1(C)[C@@]24CO4,LJWZOKOFCBPNAG-SMRSBHFRSA-N,-2.9196
octylmalonic acid,,CCCCCCCCC(C(O)=O)C(O)=O,QJGNSTCICFBACB-UHFFFAOYSA-N,-2.92
"1,5-dihydroxynaphthalene;  1,5-naphthalenediol",,OC1=CC=CC2=C1C=CC=C2O,BOKGTLAJQHTOKE-UHFFFAOYSA-N,-2.92
methaqualone;  2-methyl-3-(2-tolyl)quinazolin-4-one,,CC1=CC=CC=C1N2C(=NC3=C(C=CC=C3)C2=O)C,JEYCTXHKTXCGPB-UHFFFAOYSA-N,-2.92
furmecyclox;  furmetamide,,CON(C1CCCCC1)C(=O)C2=C(C)OC(=C2)C,QTDRLOKFLJJHTG-UHFFFAOYSA-N,-2.92
ethyl thiabendazole-1-carboxylate; 1-ethoxycarbonylthiabendazole; 1-ethoxycarbonyl-2-(4-thiazolyl)benzimidazole,,CCOC(=O)[N]1C2=C(C=CC=C2)N=C1C3=CSC=N3,UGRWIGCKFYJTEL-UHFFFAOYSA-N,-2.92
"2,5-dimethylbenzoic  acid",,CC1=CC(=C(C)C=C1)C(O)=O,XZRHNAFEYMSXRG-UHFFFAOYSA-N,-2.92
"5-fluoro-1-[(4-methylphenyl)methyl]pyrimidine-2,4-dione",,CC1=CC=C(CN2C=C(F)C(=O)NC2=O)C=C1,POACFNLCTNKXFD-UHFFFAOYSA-N,-2.92
"2-[2-(furan-2-yl)benzimidazol-1-yl]-5-(hydroxymethyl)oxolane-3,4-diol",,OCC1OC(N2C(C3=CC=CO3)=NC3=C2C=CC=C3)C(O)C1O,TWMNUUAIOLTJCK-UHFFFAOYSA-N,-2.92
[(z)-(5-Nitrofuran-2-yl)methylideneamino]urea,,C1=C(OC(=C1)[N+](=O)[O-])C=NNC(=O)N,IAIWVQXQOWNYOU-UHFFFAOYSA-N,-2.92
"8-quinazolinol, 4-propyl-",,CCCc1ncnc2c(O)cccc12,KUCALNGKSZWXGU-UHFFFAOYSA-N,-2.9206
Adefovir Dipivoxil,CAS142340-99-6,CC(C)(C)C(=O)OCOP(=O)(COCCn1cnc2c(N)ncnc21)OCOC(=O)C(C)(C)C,WOZSCQDILHKSGG-UHFFFAOYSA-N,-2.92
"benzene, 1-methoxy-4-(2-propenyl)-",,COc1ccc(CC=C)cc1,ZFMSMUAANRJZFM-UHFFFAOYSA-N,-2.9209
hydrazobenzene,,N(Nc1ccccc1)c2ccccc2,YBQZXXMEJHZYMB-UHFFFAOYSA-N,-2.921
Thioguanine,CAS154-42-7,Nc1nc(S)c2nc[nH]c2n1,WYWHKKSPHMUBEB-UHFFFAOYSA-N,-2.92
"(3,4-dihydroxyphenyl)-phenylmethanone",,Oc1ccc(cc1O)C(=O)c2ccccc2,ARWCZKJISXFBGI-UHFFFAOYSA-N,-2.92262005
"2,4-diethyl-3-propylpentane-1,5-diol; 2,4-diethyloctan-1-ol; 2-ethylhexan-1-ol; 2-ethylhexane-1,3-diol",,CCCCC(CC)CO.CCCCC(CC)CC(CC)CO.CCCC(O)C(CC)CO.CCCC(C(CC)CO)C(CC)CO,XVOPVUDUALAJCP-UHFFFAOYSA-N,-2.925284669
2-tert-Butyl-4-methoxyphenol,,COc1ccc(O)c(c1)C(C)(C)C,MRBKEAMVRSLQPH-UHFFFAOYSA-N,-2.927488442
methoproptryne,,COCCCNc1nc(NC(C)C)nc(SC)n1,DDUIUBPJPOKOMV-UHFFFAOYSA-N,-2.9284
methanidylidyneoxidanium,,[C-]#[O+],UGFAIRIUMAVXCW-UHFFFAOYSA-N,-2.928799169
"2,2-dimethyl-1,3-dihydroperimidine",,CC1(C)Nc2cccc3cccc(N1)c23,DETLTZYXZWIXIB-UHFFFAOYSA-N,-2.929898895
"1-cyclohexene-1,4-dicarboxylic  acid",,OC(=O)C1CCC(=CC1)C(O)=O,KAAQPMPUQHKLLE-UHFFFAOYSA-N,-2.93
"4-amino-6,7-diethylpteridine",,CCC1=NC2=C(N=C1CC)C(=NC=N2)N,HHDDWTCUQVPOBP-UHFFFAOYSA-N,-2.93
Gentisin,,Oc1ccc2Oc3cc(OC)cc(O)c3C(=O)c2c1,XOXYHGOIRWABTC-UHFFFAOYSA-N,-2.93
nonan-2-one,,CCCCCCCC(C)=O,VKCYHJWLYTUGCC-UHFFFAOYSA-N,-2.930311379
phthalamide,,c1cC2C(=O)NC(=O)C2cc1,RDHHZPRHIKNBBI-UHFFFAOYSA-N,-2.932
2-(tert-butylperoxy)-2-methylpropane,,CC(C)(C)OOC(C)(C)C,LSXWFXONGKSEMY-UHFFFAOYSA-N,-2.93204037
,CHEMBL2347419,CN(C)CCCn1nc(c2cnc3[nH]cc(C(=O)NC(C)(C)CO)c3n2)c4cc(OC(F)F)ccc14,CMIKJDRGVKWQER-UHFFFAOYSA-N,-2.932139436
3-methylbutyl butanoate,,CCCC(=O)OCCC(C)C,PQLMXFQTAMDXIZ-UHFFFAOYSA-N,-2.932852123
bendiocarb,,CNC(=O)Oc1cccc2OC(C)(C)Oc12,XEGGRYVFLWGFHI-UHFFFAOYSA-N,-2.9338
kasugamycin,,CN(C)C(=O)Nc1cccc(OC(=O)NC(C)(C)C)c1,OWNAXTAAAQTBSP-UHFFFAOYSA-N,-2.9342
Hydrocortisone; Cortisol,PubChemCID5754,CC12CCC(=O)C=C1CCC3C2C(CC4(C3CCC4(C(=O)CO)O)C)O,JYGXADMDTFJGBT-UHFFFAOYSA-N,-2.94
aluminium(3+) ion 6-sulfonato-1-[(E)-2-(4-sulfonatophenyl)diazen-1-yl]naphthalen-2-olate,,[Al+3].[O-]c1ccc2cc(ccc2c1N=Nc3ccc(cc3)[S]([O-])(=O)=O)[S]([O-])(=O)=O,FFVVMXXUKCHQFS-UHFFFAOYSA-K,-2.936886553
3-Nitrophthalonitrile,,[O-][N+](=O)c1cccc(C#N)c1C#N,UZJZIZFCQFZDHP-UHFFFAOYSA-N,-2.937344842
"1,2-naphthalenedione, 1-oxime",,Oc1ccc2ccccc2c1N=O,YXAOOTNFFAQIPZ-UHFFFAOYSA-N,-2.9374
eglinazine ethyl,,CCNc1nc(Cl)nc(NCC(=O)OCC)n1,YESXTECNXIKUMM-UHFFFAOYSA-N,-2.9374
carisoprodol,,CCCC(C)(COC(N)=O)COC(=O)NC(C)C,OFZCIYFFPZCNJE-UHFFFAOYSA-N,-2.9384
"hydrazinecarboxamide, 1-ethyl-2-[(5-nitro-2-fura",,CCN(/N=C/c1oc(cc1)[N+]([O-])=O)C(N)=O,JGPNCLKRECLYTO-BJMVGYQFSA-N,-2.9395
cephalothin,,CC(=O)OCC1=C(N2C(SC1)C(NC(=O)CC3=CC=CS3)C2=O)C(O)=O,XIURVHNZVLADCM-UHFFFAOYSA-N,-2.94
"3,4,5-trichlorophenoxyacetic acid",,OC(=O)COC1=CC(=C(Cl)C(=C1)Cl)Cl,DAIMSMGGQIIQPI-UHFFFAOYSA-N,-2.94
1-nitrosonaphthalen-2-ol,,O=C1C=CC2=C(C=CC=C2)C1=NO,CAQHPYSDQFDJAL-UHFFFAOYSA-N,-2.94
N-[4-(acridin-9-ylamino)-3-methylaminophenyl]methanesulfonamide,,CNC1=C(NC2=C3C=CC=CC3=NC3=C2C=CC=C3)C=CC(NS(C)(=O)=O)=C1,FODDJNZEXHBBKD-UHFFFAOYSA-N,-2.94
cephalothin,,C1(=C(COC(C)=O)CS[C@@H]2[C@H](NC(=O)Cc3cccs3)C(N12)=O)C(O)=O,XIURVHNZVLADCM-IUODEOHRSA-N,-2.94
2-undecanol,,CCCCCCCCCC(C)O,XMUJIPOFTAHSOK-UHFFFAOYSA-N,-2.9418
gentisin,,c1c(O)C2C(=O)C3cc(O)ccC3OC2cc1(OC),DOIBQIDXMYSSJY-UHFFFAOYSA-N,-2.943
diphenylacetonitrile,,N#CC(c1ccccc1)c2ccccc2,NEBPTMCRLHKPOB-UHFFFAOYSA-N,-2.9437
"benzoic acid, 4-amino-, 2-methylpropyl ester",,CC(C)COC(=O)c1ccc(N)cc1,PUYOAVGNCWPANW-UHFFFAOYSA-N,-2.9437
(2-methoxy-5-nitrophenyl) acetate,,COc1ccc(cc1OC(C)=O)[N+]([O-])=O,XBFBLYSAWSLPRY-UHFFFAOYSA-N,-2.946604067
calcium dihydrate hydrogen phosphate,,[Ca++].O[P]([O-])([O-])=O,FUFJGUQYACFECW-UHFFFAOYSA-L,-2.949026268
6-mercaptopurine;  6-purinethione,,S=C1NC=NC2=C1N=C[NH]2,GLVAUDGFNGKCSF-UHFFFAOYSA-N,-2.95
"n1,n1-dimethyl-n4-hexanoyl-n4-methylsulfanilamide; n-[(4-dimethylsulfamoyl)phenyl]-n-methylhexanoic acid amide",,CCCCCC(=O)N(C)C1=CC=C(C=C1)[S](=O)(=O)N(C)C,XKZWBUMTAFVMJT-UHFFFAOYSA-N,-2.95
butanoyloxymethyl nalidixate;  nalidixic acid butanoyloxymethyl ester,,CCCC(=O)OCOC(=O)C1=CN(CC)C2=C(C=CC(=N2)C)C1=O,YCPMGOBLONVZFZ-UHFFFAOYSA-N,-2.95
2-[(3-hydroxyphenyl)hydrazono]malononitrile,,OC1=CC=CC(=C1)NN=C(C#N)C#N,XPHHWVZARKXKST-UHFFFAOYSA-N,-2.95
diltiazem,,COC1=CC=C(C=C1)C2SC3=CC=CC=C3N(CCN(C)C)C(=O)C2OC(C)=O,HSUGRBWQSSZJOP-UHFFFAOYSA-N,-2.95
brinzolamide,,CCNC1CN(CCCOC)[S](=O)(=O)C2=C1C=C(S2)[S](N)(=O)=O,HCRKCZRJWPKOAR-UHFFFAOYSA-N,-2.95
"benzamide, n- (4-aminophenyl)sulfonyl -",,Nc1ccc(cc1)[S](=O)(=O)NC(=O)c2ccccc2,PBCZLFBEBARBBI-UHFFFAOYSA-N,-2.9501
4-formyl-2-nitrophenol,,Oc1ccc(C=O)cc1[N+]([O-])=O,YTHJCZRFJGXPTL-UHFFFAOYSA-N,-2.9512
Voriconazole,CAS137234-62-9,C[C@@H](c1ncncc1F)[C@](O)(Cn1cncn1)c1ccc(F)cc1F,BCEHBSKCWLPMDN-MGPLVRAMSA-N,-2.95
2-phenoxyethyl 2-methylprop-2-enoate,,CC(=C)C(=O)OCCOc1ccccc1,CEXQWAAGPPNOQF-UHFFFAOYSA-N,-2.95264717
"3h-pyrazol-3-one, 4,4'-methylenebis[1,2-dihydro-",,CN1N(C(=O)C(=C1C)CC2=C(C)N(C)N(C2=O)c3ccccc3)c4ccccc4,QATHNKNPUVVKHK-UHFFFAOYSA-N,-2.9549
"disodium 5,5'-[propane-2,2-diylbis(4,1-phenyleneoxysulfonyl-2,1-phenylenediazene-2,1-diyl)]bis(6-amino-4-hydroxynaphthalene-2-sulfonate)",,[Na+].[Na+].CC(C)(c1ccc(O[S](=O)(=O)c2cccc(NNC3=C4C(=O)C=C(C=C4C=CC3=N)[S](O)(=O)=O)c2)cc1)c5ccc(O[S](=O)(=O)c6cccc(NNC7=C8C(=O)C=C(C=C8C=CC7=N)[S](O)(=O)=O)c6)cc5,DCWBGUSTCFJTDR-UHFFFAOYSA-N,-2.956287317
sulfadimethoxine,,COc1cc(N[S](=O)(=O)c2ccc(N)cc2)nc(OC)n1,ZZORFUFYDOWNEF-UHFFFAOYSA-N,-2.9565
,CHEMBL2347409,Cc1ccc2c(nn(C)c2c1)c3cnc4[nH]cc(C(=O)NC5(C)CCNC5)c4n3,MNULNRKCIHEFMM-UHFFFAOYSA-N,-2.957711532
zinc bis[O-(2-ethylhexyl) O-isobutyl dithiophosphate],,[Zn++].CCCCC(CC)CO[P]([S-])(=S)OCC(C)C.CCCCC(CC)CO[P]([S-])(=S)OCC(C)C,FHIAIHDDIOVFSY-UHFFFAOYSA-L,-2.958195047
n-butyl iodide,,CCCCI,KMGBZBJJOKUPIA-UHFFFAOYSA-N,-2.9587
ethyl (1-(4-methyl)phenylsulfonyl) cyclobutane c,,CCOC(=O)C1(CCC1)[S](=O)(=O)c2ccc(C)cc2,CTCKUDTVPBDAHJ-UHFFFAOYSA-N,-2.9594
"2,4-d, methyl ester",,COC(=O)COc1ccc(Cl)cc1Cl,HWIGZMADSFQMOI-UHFFFAOYSA-N,-2.9596
1-amino-2-naphthalenesulfonic  acid,,NC1=C(C=CC2=C1C=CC=C2)[S](O)(=O)=O,ONZWNZGVZFLMNZ-UHFFFAOYSA-N,-2.96
"naproxen [n,n-bis(2-hydroxyethyl)carbamoyl]methyl ester",,COC1=CC=C2C=C(C=CC2=C1)C(C)C(=O)OCC(=O)N(CCO)CCO,FZLRPSHQNAHYAG-UHFFFAOYSA-N,-2.96
2-mercaptocinnamic  acid;  2-mercapto-3-phenylpropenoic acid,,OC(=O)/C(S)=C/C1=CC=CC=C1,NAEHAPZYAHRUTE-VURMDHGXSA-N,-2.96
"purine-6,8-dione",,O=C1NC2=C(N1)C(=O)NC=N2,BYUOBSUZYQAFJM-UHFFFAOYSA-N,-2.96
"4,6-pteridinedione",,O=C1NC2=C(N=CNC2=O)N=C1,BJZIBODCUPQTSW-UHFFFAOYSA-N,-2.96
"4-(4-bromo-2-fluorophenylamino)-n-(2-hydroxyethoxy)-1,5-dimethyl-6-oxo-1,6-dihydropyridine-3-carboxamide",,CN1C=C(C(=O)NOCCO)C(=C(C)C1=O)NC2=C(F)C=C(Br)C=C2,XHELVEVNEWRBRH-UHFFFAOYSA-N,-2.96
"2-(2,4,5-trichlorophenoxy)ethanethioic S-acid",,OC(=S)COC1=C(Cl)C=C(Cl)C(Cl)=C1,VRXPNZQIJMKYQY-UHFFFAOYSA-N,-2.96
"3,5-Dichloro-2,6-dimethoxyphenol",,COC1=C(Cl)C=C(Cl)C(OC)=C1O,IDKMFABKPPHDBI-UHFFFAOYSA-N,-2.96
"(3,4,5,6-tetrahydroxyoxan-2-yl)methyl-n-nonylcarbamate",,CCCCCCCCCNC(=O)OCC1OC(O)C(O)C(O)C1O,IISXZSRCIXGFGN-UHFFFAOYSA-N,-2.96
"2-phenyl-1H-1,3-benzodiazole-5-sulfonic acid",,O[S](=O)(=O)c1ccc2nc([nH]c2c1)c3ccccc3,UVCJGUGAGLDPAA-UHFFFAOYSA-N,-2.961106136
benzene; ethenylbenzene; toluene,,Cc1ccccc1.C=Cc2ccccc2.c3ccccc3,MHNCXEKWIFKKSF-UHFFFAOYSA-N,-2.961273931
,CHEMBL1631200,CS(=O)(=O)c1ccc(N2CCOCC2)c(c1)C(=O)N3Cc4cc(cnc4C3)C(F)(F)F,NVYIUOYOCQKBAB-UHFFFAOYSA-N,-2.963513719
"butanedioic acid, tetraethyl-",,CCC(CC)(C(O)=O)C(CC)(CC)C(O)=O,CQCFISPMNREOQX-UHFFFAOYSA-N,-2.9644
Amiodarone Hydrochloride,CAS19774-82-4,CCCCc1oc2ccccc2c1C(=O)c1cc(I)c(OCCN(CC)CC)c(I)c1.Cl,ITPDYQOUSLNIHG-UHFFFAOYSA-N,-2.96
fenamiphos,,CCO[P](=O)(NC(C)C)Oc1ccc(SC)c(C)c1,ZCJPOPBZHLUFHF-UHFFFAOYSA-N,-2.9648
Carbamazepine,CAS298-46-4,NC(=O)N1c2ccccc2C=Cc2ccccc21,FFGPTBGBLSHEPO-UHFFFAOYSA-N,-2.97
"(1Z,5Z)-cycloocta-1,5-diene",,C\1C\C=C/CC\C=C1,VYXHVRARDIDEHS-QGTKBVGQSA-N,-2.965977173
dipropalin,,CCCN(CCC)c1c(cc(C)cc1[N+]([O-])=O)[N+]([O-])=O,UDVZOMAEGATTSE-UHFFFAOYSA-N,-2.9663
zinc(2+) ion sulfanediide,,S=[Zn],WGPCGCOKHWGKJJ-UHFFFAOYSA-N,-2.967623739
"benzoic acid, 4-bromo-3-nitro-",,OC(=O)c1ccc(Br)c(c1)[N+]([O-])=O,RVCTZJVBWNFYRU-UHFFFAOYSA-N,-2.9677
"N-decyl-N,N-dimethyldecan-1-aminium chloride",,[Cl-].CCCCCCCCCC[N+](C)(C)CCCCCCCCCC,RUPBZQFQVRMKDG-UHFFFAOYSA-M,-2.967747126
benzyl 2-methylprop-2-enoate,,CC(=C)C(=O)OCc1ccccc1,AOJOEFVRHOZDFN-UHFFFAOYSA-N,-2.968204541
"6-chloro-2,3-dihydro-1H-indol-2-one",,Clc1ccc2CC(=O)Nc2c1,CENVPIZOTHULGJ-UHFFFAOYSA-N,-2.968988553
4-[(2-methylprop-2-enoyl)oxy]butyl 2-methylprop-2-enoate,,CC(=C)C(=O)OCCCCOC(=O)C(C)=C,XOJWAAUYNWGQAU-UHFFFAOYSA-N,-2.969024542
"oxamniquine;  6-hydroxymethyl-2-isopropylaminomethyl-7-nitro-1,2,3,4-tetrahydroquinoline",,CC(C)NCC1CCC2=C(N1)C=C(C(=C2)CO)[N+]([O-])=O,XCGYUJZMCCFSRP-UHFFFAOYSA-N,-2.97
"2,4-dimethylbenzoic  acid",,CC1=CC(=C(C=C1)C(O)=O)C,BKYWPNROPGQIFZ-UHFFFAOYSA-N,-2.97
"3,4'-ace-1,2-benzanthracene",,C1CC2=CC3=CC4=C(C=CC=C4)C=C3C5=C2C1=CC=C5,PMNATJJZOUNELG-UHFFFAOYSA-N,-2.97
1-[bis(butylsulfonyl)methylsulfonyl]butane,,CCCCS(=O)(=O)C(S(=O)(=O)CCCC)S(=O)(=O)CCCC,BNLKXFUYFIBLHN-UHFFFAOYSA-N,-2.97
4-Methoxycarbonylbenzoic acid,,COC(=O)C1=CC=C(C(=O)O)C=C1,REIDAMBAPLIATC-UHFFFAOYSA-N,-2.97
4-[4-(4-fluorophenyl)-4-hydroxypiperidin-1-yl]-1-phenylbutan-1-one,,O=C(CCCN1CCC(O)(C2=CC=C(F)C=C2)CC1)C1=CC=CC=C1,IZGZADRFKHDVHC-UHFFFAOYSA-N,-2.97
hydroflumethiazide,,S1(=O)(=O)NCNc2c1cc(S(=O)(N)=O)c(c2)C(F)(F)F,DMDGGSIALPNSEE-UHFFFAOYSA-N,-2.97
p-hydroxy butyl benzoate,,CCCCOC(=O)c1ccc(O)cc1,QFOHBWFCKVYLES-UHFFFAOYSA-N,-2.9723
,CHEMBL1631197,CS(=O)(=O)c1ccc(OCCC(F)(F)F)c(c1)C(=O)N2Cc3cc(cnc3C2)C(F)(F)F,CBFIHQCACGMSHE-UHFFFAOYSA-N,-2.972995891
benzyl morphine,,CN1CC[C@]23[C@H]4Oc5c(OCc6ccccc6)ccc(C[C@@H]1[C@@H]2C=C[C@@H]4O)c35,RDJGWRFTDZZXSM-RNWLQCGYSA-N,-2.973
pipemidic acid,,CCN1C=C(C(O)=O)C(=O)c2cnc(nc12)N3CCNCC3,JOHZPMXAZQZXHR-UHFFFAOYSA-N,-2.974
1-nitro-2-naphthol,,Oc1ccc2ccccc2c1[N+]([O-])=O,SSHIVHKMGVBXTJ-UHFFFAOYSA-N,-2.9758
Prednisolone,CAS50-24-8,C[C@]12C[C@H](O)[C@H]3[C@@H](CCC4=CC(=O)C=C[C@@]43C)[C@@H]1CC[C@]2(O)C(=O)CO,OIGNJSKKLXVSLS-VWUMJDOOSA-N,-2.98
"3-pyridinecarboxamide, n-2-pyridinyl-",,O=C(Nc1ccccn1)c2cccnc2,QZNPXKRALPFXPR-UHFFFAOYSA-N,-2.9771
2-methylpropane,,CC(C)C,NNPPMTNAJDCUHE-UHFFFAOYSA-N,-2.977604072
butane,,CCCC,IJDNQMDRQITEOD-UHFFFAOYSA-N,-2.977604072
"N-(4-chloro-2,5-dimethoxyphenyl)-3-oxobutanamide",,COc1cc(NC(=O)CC(C)=O)c(OC)cc1Cl,MOUVJGIRLPZEES-UHFFFAOYSA-N,-2.979244778
"(1R,2S,5R)-5-methyl-2-(propan-2-yl)cyclohexyl (2S)-2-hydroxypropanoate",,CC(C)[C@@H]1CC[C@@H](C)C[C@H]1OC(=O)[C@H](C)O,UJNOLBSYLSYIBM-NOOOWODRSA-N,-2.979987205
"spiro-5,5-cyclooctylbarbituric  acid;  spiro-5,5-heptamethylenebarbituric acid",,O=C1NC(=O)C2(CCCCCCC2)C(=O)N1,RQNKKIXVVHCBKY-UHFFFAOYSA-N,-2.98
nitrofurazone,,NC(=O)N/N=C/C1=CC=C(O1)[N+]([O-])=O,IAIWVQXQOWNYOU-FPYGCLRLSA-N,-2.98
"2,4,5-trichlorophenoxyacetic  acid",,OC(=O)COC1=C(Cl)C=C(Cl)C(=C1)Cl,SMYMJHWAQXWPDB-UHFFFAOYSA-N,-2.98
"5,5-spirocycloheptylbarbituric  acid;  spiro-5,5-hexamethylenebarbituric acid",,O=C1NC(=O)C2(CCCCCC2)C(=O)N1,RSWPVXFVQHCCCI-UHFFFAOYSA-N,-2.98
diphenamid,,CN(C)C(=O)C(c1ccccc1)c2ccccc2,QAHFOPIILNICLA-UHFFFAOYSA-N,-2.98
"phenol, 2,4-dichloro-3,5-dimethyl-",,Cc1cc(O)c(Cl)c(C)c1Cl,IYOLBFFHPZOQGW-UHFFFAOYSA-N,-2.9801
"1,2,4-triazolidine-3,5-dione, 4-methyl-1-phenyl-",,CN1C(=O)NN(C1=O)c2ccccc2,XVVORNVNYKBZKT-UHFFFAOYSA-N,-2.9804
"1,8-nonadiyne",,C#CCCCCCC#C,DMOVPHYFYSASTC-UHFFFAOYSA-N,-2.983
"3-methyl-1,1-diphenylurea",,CNC(=O)N(c1ccccc1)c2ccccc2,IMFYAZJNDOZIFV-UHFFFAOYSA-N,-2.983946158
"naphtho[2,3-c]furan-1(3h)-one, 3,3-dimethyl-",,CC1(C)OC(=O)c2cc3ccccc3cc12,RCRSAOBHVMTZFO-UHFFFAOYSA-N,-2.9844
propanil,,CCC(=O)Nc1ccc(Cl)c(Cl)c1,LFULEKSKNZEWOE-UHFFFAOYSA-N,-2.9864
Desogestrel,CAS54024-22-5,C#C[C@]1(O)CC[C@H]2[C@@H]3CCC4=CCCC[C@@H]4[C@H]3C(=C)C[C@@]21CC,RPLCPCMSCLEKRS-BPIQYHPVSA-N,-2.99
4-isopropylbenzonitrile,,CC(C)c1ccc(cc1)C#N,YFDJCWXBKWRDPW-UHFFFAOYSA-N,-2.988795303
methyl 2-ethylhexanoate,,CCCCC(CC)C(=O)OC,KICUISADAVMYCJ-UHFFFAOYSA-N,-2.989804004
3-(4-fluorophenyl)-1-(4-sulfamoylphenyl)thiourea,,N[S](=O)(=O)c1ccc(NC(=S)Nc2ccc(F)cc2)cc1,VUDOFEJVAFMLEC-UHFFFAOYSA-N,-2.989959968
diethyl azelate,,CCOC(=O)CCCCCCCC(=O)OCC,CQMYCPZZIPXILQ-UHFFFAOYSA-N,-2.99
n-(methyl)thalidomide,,CN1C(=O)CCC(N2C(=O)C3=C(C=CC=C3)C2=O)C1=O,IYYPLFUVXTVBLD-UHFFFAOYSA-N,-2.99
"9-[2-(indol-3-yl)ethyl]-1-oxa-3-oxo-4,9-diazaspiro[5,5]undecane",,O=C1COC2(CCN(CCC3=C[NH]C4=C3C=CC=C4)CC2)CN1,SPALXTYNFFFDEM-UHFFFAOYSA-N,-2.99
"N-[(4-methoxyphenyl)methyl]-N',N'-dimethyl-N-pyrimidin-2-ylethane-1,2-diamine",,COC1=CC=C(CN(CCN(C)C)C2=NC=CC=N2)C=C1,GULNIHOSWFYMRN-UHFFFAOYSA-N,-2.99
p-tert-amylphenol,,CCC(C)(C)c1ccc(O)cc1,NRZWYNLTFLDQQX-UHFFFAOYSA-N,-2.9902
"Phosphorodithioic acid, mixed O,O-bis(sec-Bu and 1,3-dimethylbutyl) esters, zinc salts",,[Zn++].CCC(C)O[P]([S-])(=S)OC(C)CC(C)C.CCC(C)O[P]([S-])(=S)OC(C)CC(C)C,PWMSQVOBEKFBRF-UHFFFAOYSA-L,-2.990876868
benfuresate,,CC[S](=O)(=O)Oc1ccc2OCC(C)(C)c2c1,QGQSRQPXXMTJCM-UHFFFAOYSA-N,-2.9921
Erlotinib Hydrochloride,CAS183319-69-9,C#Cc1cccc(Nc2ncnc3cc(OCCOC)c(OCCOC)cc23)c1.Cl,GTTBEUCJPZQMDZ-UHFFFAOYSA-N,-2.99
Nateglinide,CAS105816-04-4,CC(C)[C@H]1CC[C@H](C(=O)N[C@H](Cc2ccccc2)C(=O)O)CC1,OELFLUMRDSZNSF-BRWVUGGUSA-N,-2.99
,CHEMBL1631026,CC(C)COc1ccc(cc1C(=O)N2Cc3cc(cnc3C2)C(F)(F)F)S(=O)(=O)C,KKVWTQYWUKZMBL-UHFFFAOYSA-N,-2.997177609
quinmerac,,Cc1cnc2c(ccc(Cl)c2C(O)=O)c1,ALZOLUNSQWINIR-UHFFFAOYSA-N,-2.9973
"4-[(E)-2-phenyldiazen-1-yl]benzene-1,3-diamine",,Nc1ccc(N=Nc2ccccc2)c(N)c1,IWRVPXDHSLTIOC-UHFFFAOYSA-N,-2.997665561
2-diethylamino-4-ethylamino-6-methoxy-s-triazi*,,CCNc1nc(OC)nc(n1)N(CC)CC,MVILCVSEDHFDSS-UHFFFAOYSA-N,-2.9987