Name,ID,SMILES,inchi,LogS
sodium 4-{5-hydroxy-3-methyl-4-[(E)-2-[4-methyl-3-(phenylsulfamoyl)phenyl]diazen-1-yl]-1H-pyrazol-1-yl}benzene-1-sulfonate,,[Na+].CC1=NN(C(=O)C1N=Nc2ccc(C)c(c2)[S](=O)(=O)Nc3ccccc3)c4ccc(cc4)[S]([O-])(=O)=O,WYLWMAWLDZBLRN-UHFFFAOYSA-M,-0.872552369
2-hexanol,,CCCCC(C)O,QNVRIHYSUZMSGM-UHFFFAOYSA-N,-0.8726
"pteridine, 7-chloro-",,Clc1cnc2cncnc2n1,AANUQVPVSJJCRI-UHFFFAOYSA-N,-0.8749
m-bromophenol,,Oc1cccc(Br)c1,MNOJRWOWILAHAV-UHFFFAOYSA-N,-0.8764
"2,6,6-trimethylcyclohex-2-ene-1,4-dione",,CC1=CC(=O)CC(C)(C)C1=O,AYJXHIDNNLJQDT-UHFFFAOYSA-N,-0.87790415
acid red 18,,[Na+].[Na+].[Na+].[O-][S](=O)(=O)c1cc2C=CC(=O)\C(=N/Nc3ccc(c4ccccc34)[S]([O-])(=O)=O)c2c(c1)[S]([O-])(=O)=O,IVNZBWNBYXERPK-DZGBHZPSSA-K,-0.8783
2-amino-1-phenyl-propan-1-ol,,C[C@H](N)[C@@H](O)c1ccccc1,DLNKOYKMWOXYQA-IONNQARKSA-N,-0.8786
"5-nitro-2,3-dihydro-1H-1,2,4-triazol-3-one",,[O-][N+](=O)C1=NC(=O)NN1,QJTIRVUEVSKJTK-UHFFFAOYSA-N,-0.87862532
Carbenicillin,CAS4697-36-3,CC1(C)S[C@@H]2[C@H](NC(=O)C(C(=O)O)c3ccccc3)C(=O)N2[C@H]1C(=O)O,FPPNZSSZRUTDAP-UWFZAAFLSA-N,-0.88
"hexasodium 6,13-dichloro-3,10-bis({[2-({4-chloro-6-[(2,4-disulfonatophenyl)amino]-1,3,5-triazin-2-yl}amino)ethyl]amino})-5,12-dioxa-7,14-diazapentacene-4,11-disulfonate",,[Na+].[Na+].[Na+].[Na+].[Na+].[Na+].[O-][S](=O)(=O)c1ccc(Nc2nc(Cl)nc(NCCNc3ccc4N=C5C(=C6Oc7c(ccc(NCCNc8nc(Cl)nc(Nc9ccc(cc9[S]([O-])(=O)=O)[S]([O-])(=O)=O)n8)c7[S]([O-])(=O)=O)N=C6C(=C5Oc4c3[S]([O-])(=O)=O)Cl)Cl)n2)c(c1)[S]([O-])(=O)=O,LNXCMNGXHAOOOW-UHFFFAOYSA-H,-0.879554019
"3-Propyl-2,4-pentadione",,CC(=O)C(CCC)C(=O)C,AQGSZYZZVTYOMQ-UHFFFAOYSA-N,-0.88
Cycloheptanol,,OC1CCCCCC1,QCRFMSUKWRQZEM-UHFFFAOYSA-N,-0.88
Methyl chloride  ,,CCl,NEHMKBQYUWJMIP-UHFFFAOYSA-N,-0.88
2-bromopyridine,,Brc1ccccn1,IMRWILPUOVGIMU-UHFFFAOYSA-N,-0.8806
4-methylcyclohexanol,,CC1CCC(O)CC1,MQWCXKGKQLNYQG-UHFFFAOYSA-N,-0.8815
"propanoic acid, 2,2,3,3-tetrafluoro-, sodium sal",,[Na+].[O-]C(=O)C(F)(F)C(F)F,SGUSXTMVKMPQKI-UHFFFAOYSA-M,-0.8829
hexazinone,,CN(C)C1=NC(=O)N(C2CCCCC2)C(=O)N1C,CAWXEEYDBZRFPE-UHFFFAOYSA-N,-0.8834
"disodium bicyclo[3.3.1]tetraboroxane-3,7-bis(olate)",,O.O.O.O.O.O.O.O.O.O.[Na+].[Na+].[O-]B(OB=O)OB([O-])OB=O,OJPFLODMGUZMKD-UHFFFAOYSA-N,-0.884641885
"tetrasodium 5-({4-[(2-hydroxyethyl)amino]-6-[(3-sulfonatophenyl)amino]-1,3,5-triazin-2-yl}amino)-2-[(E)-2-[4-({4-[(2-hydroxyethyl)amino]-6-[(3-sulfonatophenyl)amino]-1,3,5-triazin-2-yl}amino)-2-sulfonatophenyl]ethenyl]benzene-1-sulfonate",,[Na+].[Na+].[Na+].[Na+].OCCNc1nc(Nc2cccc(c2)[S](O)(=O)=O)nc(Nc3ccc(\C=C\c4ccc(Nc5nc(NCCO)nc(Nc6cccc(c6)[S](O)(=O)=O)n5)cc4[S](O)(=O)=O)c(c3)[S](O)(=O)=O)n1,HECFMGCMMKUMIN-YZNHWISSSA-N,-0.887690427
"pentanoic acid, 2-methyl-",,CCCC(C)C(O)=O,OVBFMEVBMNZIBR-UHFFFAOYSA-N,-0.889
bromo(chloro)methane,,ClCBr,JPOXNPPZZKNXOV-UHFFFAOYSA-N,-0.889164102
"1,4-benzoquinone;  quinone",,O=C1C=CC(=O)C=C1,AZQWKYJCGOJGHM-UHFFFAOYSA-N,-0.89
"2,3-dimethyl-2-pentanol",,CC(O)(C)C(C)CC,YRSIFCHKXFKNME-UHFFFAOYSA-N,-0.89
phenylacetic_acid,,O=C(O)Cc(cccc1)c1,WLJVXDMOQOGPHL-UHFFFAOYSA-N,-0.89
"5-[(4-methoxyphenyl)methyl]-3-methylimidazolidine-2,4-dione",,COC1=CC=C(CC2NC(=O)N(C)C2=O)C=C1,YLDXEYAVVSHKFZ-UHFFFAOYSA-N,-0.89
2-phenylsulfonylpropanoic acid,,CC(C(=O)O)S(=O)(=O)C1=CC=CC=C1,WIQURXUWPJLEDJ-UHFFFAOYSA-N,-0.89
"5-(benzoylamino)-3-[[5-[[(5-chloro-2,6-difluoro-4-pyrimidinyl)amino]methyl]-1-sulpho-2-naphthyl]azo]-4-hydroxynaphthalene-2,7-disulphonic acid, lithium sodium salt",,[Li+].[Na+].[Na+].[O-][S](=O)(=O)c1cc(NC(=O)c2ccccc2)c3C(=O)C(=N/Nc4ccc5c(CNc6nc(F)nc(F)c6Cl)cccc5c4[S]([O-])(=O)=O)/C(=Cc3c1)[S]([O-])(=O)=O,XBPKXTOUESGOQS-JVNZOHJBSA-K,-0.890086508
copper sulfate pentahydrate,,O.O.O.O.O.[Cu++].[O-][S]([O-])(=O)=O,JZCCFEFSEZPSOG-UHFFFAOYSA-L,-0.8922
"2,5-piperazinedione, 3-(1-methylethyl)-",,CC(C)C1NC(=O)CNC1=O,IULFBTHVPRNQCG-UHFFFAOYSA-N,-0.8926
"benzeneacetic acid, .alpha.-hydroxy-.alpha.-meth",,CC(O)(C(O)=O)c1ccccc1,NWCHELUCVWSRRS-UHFFFAOYSA-N,-0.8949
troclosene sodium,,[Na+].ClN1C(=O)[N-]C(=O)N(Cl)C1=O,MSFGZHUJTJBYFA-UHFFFAOYSA-M,-0.895160011
"glycine, n-(n-l-leucyl-l-alanyl)-",,CC(C)C[C@H](N)C(=O)N[C@@H](C)C(=O)NCC(O)=O,WNGVUZWBXZKQES-YUMQZZPRSA-N,-0.8953
"1,3-dioxo-1,3-dihydro-2-benzofuran-5-carboxylic acid",,OC(=O)c1ccc2C(=O)OC(=O)c2c1,SRPWOOOHEPICQU-UHFFFAOYSA-N,-0.896196315
"l-glutamic acid, n-l-leucyl-",,CC(C)C[C@H](N)C(=O)N[C@@H](CCC(O)=O)C(O)=O,NFNVDJGXRFEYTK-YUMQZZPRSA-N,-0.8969
1-cyanoprop-2-en-1-yl acetate,,CC(=O)OC(C=C)C#N,MEHLEOUIWVWVBF-UHFFFAOYSA-N,-0.898693945
"glycine, n-[n-(aminocarbonyl)glycyl]-",,NC(=O)NCC(=O)NCC(O)=O,BMRYPQYWSJESHA-UHFFFAOYSA-N,-0.8996
3-amino-4-methoxybenzenesulfonic acid,,COc1ccc(cc1N)[S](O)(=O)=O,FLIOATBXVNLPLK-UHFFFAOYSA-N,-0.899724345
1-Acetylurea,,O=C(NC(=O)C)N,GKRZNOGGALENQJ-UHFFFAOYSA-N,-0.9
"4-(aminomethyl)-9-methoxyfuro[3,2-g]chromen-7-one",,COC1=C2OC=CC2=C(CN)C2=C1OC(=O)C=C2,LIFOOMNHGFBULI-UHFFFAOYSA-N,-0.9
methyl isobutyl ether,,COCC(C)C,ZYVYEJXMYBUCMN-UHFFFAOYSA-N,-0.9007
"sodium 3-[2-(1,5-dioxonaphthalen-2-yl)hydrazinyl]-4-hydroxybenzenesulfonate",,[Na+].Oc1ccc(cc1NNC2=CC=C3C(=O)C=CC=C3C2=O)[S]([O-])(=O)=O,GJJYQFJLFUEXMR-UHFFFAOYSA-M,-0.901196004
"1-propyne, 3-bromo-",,BrCC#C,YORCIIVHUBAYBQ-UHFFFAOYSA-N,-0.9022
"5-[[4-chloro-6-[(3-sulphophenyl)amino]-1,3,5-triazin-2-yl]amino]-4-hydroxy-3-[[4-[[2-(sulphooxy)ethyl]sulphonyl]phenyl]azo]naphthalene-2,7-disulphonic acid, sodium salt",,[Na+].[Na+].[Na+].[Na+].[O-][S](=O)(=O)OCC[S](=O)(=O)c1ccc(N\N=C/2C(=O)c3c(Nc4nc(Cl)nc(Nc5cccc(c5)[S]([O-])(=O)=O)n4)cc(cc3C=C2[S]([O-])(=O)=O)[S]([O-])(=O)=O)cc1,FBVKADSDGSVOTJ-SADQMHESSA-J,-0.903187957
tolonium chloride,,[Cl-].CN(C)c1ccc2nc3cc(C)c(N)cc3[s+]c2c1,HNONEKILPDHFOL-UHFFFAOYSA-M,-0.9034
methoxycyclopentane,,COC1CCCC1,SKTCDJAMAYNROS-UHFFFAOYSA-N,-0.903788639
barium(2+) ion bis(2-ethylhexanoate),,[Ba++].CCCCC(CC)C([O-])=O.CCCCC(CC)C([O-])=O,VJFFDDQGMMQGTQ-UHFFFAOYSA-L,-0.905288847
"2(3h)-pteridinone, 3-methyl-",,CN1C=C2N=CC=NC2=NC1=O,PSYNZCWBYCLDGC-UHFFFAOYSA-N,-0.9089
"3,3'-[azoxybis[(2-methoxy-p-phenylene)azo]]bis[4,5-dihydroxynaphthalene-2,7-disulphonic] acid, lithium sodium salt",,[Li+].[Li+].[Na+].[Na+].COc1cc(ccc1N\N=C/2C(=O)c3c(O)cc(cc3C=C2[S]([O-])(=O)=O)[S]([O-])(=O)=O)N(O)\N=C\4C=CC(=N\N=C\5C(=O)c6c(O)cc(cc6C=C5[S]([O-])(=O)=O)[S]([O-])(=O)=O)\C(=C4)OC,OJJZXLAZFFTFNT-AZMQIZTHSA-J,-0.909479678
caffeine,,C[N]1C=NC2=C1C(=O)N(C)C(=O)N2C,RYYVLZVUVIJVGH-UHFFFAOYSA-N,-0.91
methyl  5-fluorouracil-1-carboxylate,,COC(=O)N1C=C(F)C(=O)NC1=O,VYTPEAPPYZRJCZ-UHFFFAOYSA-N,-0.91
7-methoxypteridine,,COC1=NC2=C(C=NC=N2)N=C1,NMUINCUJOZFODB-UHFFFAOYSA-N,-0.91
alpha-cyclodextrin;  alfadex,,OCC1OC2OC3C(O)C(O)C(OC3CO)OC4C(O)C(O)C(OC4CO)OC5C(O)C(O)C(OC5CO)OC6C(O)C(O)C(OC6CO)OC7C(O)C(O)C(OC7CO)OC1C(O)C2O,HFHDHCJBZVLPGP-UHFFFAOYSA-N,-0.91
2-(benzoylamino)-3-hydroxypropanoic acid,,O=C(NC(CO)C(=O)O)C1=CC=CC=C1,MWCDMTCWMZHVAQ-UHFFFAOYSA-N,-0.91
Lincomycin,CAS154-21-2,CCC[C@@H]1C[C@@H](C(=O)N[C@H]([C@@H](C)O)[C@H]2O[C@H](SC)[C@H](O)[C@@H](O)[C@H]2O)N(C)C1.Cl,POUMFISTNHIPTI-BOMBIWCESA-N,-0.91
Trifluoperazine,CAS117-89-5,CN1CCN(CCCN2c3ccccc3Sc3ccc(C(F)(F)F)cc32)CC1,ZEWQUBUPAILYHI-UHFFFAOYSA-N,-0.91
"phosphorodithioic acid, s-[2-(et-so)et] o,o-dime",,CC[S](=O)CCS[P](=S)(OC)OC,UILALIJMTSYZSE-UHFFFAOYSA-N,-0.9137
"dilithium(1+) ion sodium hydrogen 4-amino-6-(2-{5-[(5-chloro-2,6-difluoropyrimidin-4-yl)amino]-2-sulfonatophenyl}diazen-1-yl)-5-hydroxy-3-(2-{4-[2-(sulfonatooxy)ethanesulfonyl]phenyl}diazen-1-yl)naphthalene-2,7-disulfonate",,[Li+].[Li+].[Na+].[Na+].Nc1c(N=Nc2ccc(cc2)[S](=O)(=O)CCO[S]([O-])(=O)=O)c(cc3C=C(\C(=N/Nc4cc(Nc5nc(F)nc(F)c5Cl)ccc4[S]([O-])(=O)=O)C(=O)c13)[S]([O-])(=O)=O)[S]([O-])(=O)=O,OBOXNUGISJYBKV-ZKLNYUHUSA-J,-0.913801018
2-aminobenzamide,,NC(=O)c1ccccc1N,PXBFMLJZNCDSMP-UHFFFAOYSA-N,-0.913922317
Fluvastatin Sodium,CAS93957-54-1,CC(C)n1c(/C=C/[C@@H](O)C[C@@H](O)CC(=O)O)c(-c2ccc(F)cc2)c2ccccc21,FJLGEFLZQAZZCD-MCBHFWOFSA-N,-0.92
disodium 2-[4-[[1-[[(2-methoxy-5-methyl-4-sulphonatophenyl)amino]carbonyl]-2-oxopropyl]azo]phenyl]-6-methylbenzothiazole-7-sulphonate,,[Na+].[Na+].COc1cc(c(C)cc1NC(=O)C(N=Nc2ccc(cc2)c3sc4c(ccc(C)c4[S]([O-])(=O)=O)n3)C(C)=O)[S]([O-])(=O)=O,ADKFZTIPPMZAKW-UHFFFAOYSA-L,-0.916346136
propane-1-thiosulfinic acid s-propyl ester,,CCCS[S](=O)CCC,XPRZAEWSYWTDSQ-UHFFFAOYSA-N,-0.9199
"1,4-dichlorobutane",,ClCCCCCl,KJDRSWPQXHESDQ-UHFFFAOYSA-N,-0.92
5-ethylbarbituric acid,,CCC1C(=O)NC(=O)NC1=O,FMTLDVACNZDTQL-UHFFFAOYSA-N,-0.92
n-(2-benzoyloxyacetyl)-n-methylglycineamide,,CN(CC(N)=O)C(=O)COC(=O)C1=CC=CC=C1,DLVAUVPZQHGFJC-UHFFFAOYSA-N,-0.92
8-methyl-8h-pteridin-7-one,,CN1C(=O)C=NC2=C1N=CN=C2,AUYUOHQABGMBSA-UHFFFAOYSA-N,-0.92
2-hydroxyethyl N-[6-(2-hydroxyethoxycarbonylamino)hexyl]carbamate,,O=C(NCCCCCCNC(=O)OCCO)OCCO,MUFHLECIHYAUAE-UHFFFAOYSA-N,-0.92
"5-[(2-ethoxyethylamino)methyl]thieno[3,2-d]furan-2-sulfonamide",,CCOCCNCC1=CC2=C(OC(S(N)(=O)=O)=C2)S1,ZRQOUZWNXZFZQK-UHFFFAOYSA-N,-0.92
"disodium 2-[(5-carbamoyl-1-ethyl-2-hydroxy-4-methyl-6-oxo-1,6-dihydropyridin-3-yl)diazenyl]-4-({4-[(2-chloro-5-sulfonatophenyl)amino]-6-fluoro-1,3,5-triazin-2-yl}amino)benzenesulfonate",,[Na+].[Na+].CCN1C(=O)C(=N/Nc2cc(Nc3nc(F)nc(Nc4cc(ccc4Cl)[S]([O-])(=O)=O)n3)ccc2[S]([O-])(=O)=O)\C(=C(C(N)=O)C1=O)C,GBJBDVLMURYXQR-RJZFESICSA-L,-0.921034384
Cephalothin Sodium,CAS58-71-9,CC(=O)OCC1=C(C(=O)[O-])N2C(=O)[C@@H](NC(=O)Cc3cccs3)[C@H]2SC1.[Na+],VUFGUVLLDPOSBC-XRZFDKQNSA-M,-0.92
hydroxyphenamate,,CCC(O)(COC(N)=O)c1ccccc1,WAFIYOULDIWAKR-UHFFFAOYSA-N,-0.9227
"2-Chloro-1,1-difluoroethane",,FC(F)CCl,ATEBGNALLCMSGS-UHFFFAOYSA-N,-0.922963208
3-hydroxycamphor,,CC1(C)C2CCC1(C)C(=O)C2O,AXMKZEOEXSKFJI-UHFFFAOYSA-N,-0.9249
"2-oxabicyclo[2.2.2]octan-6-one, 1,3,3-trimethyl-",,CC1(C)OC2(C)CCC1CC2=O,CCBAAZXPXFYPBE-UHFFFAOYSA-N,-0.9249
"3,4-dihydroxybenzoic acid",,OC(=O)c1ccc(O)c(O)c1,YQUVCSBJEUQKSH-UHFFFAOYSA-N,-0.9278
penicillic acid,,COC(=CC(O)=O)C(=O)C(C)=C,VOUGEZYPVGAPBB-UHFFFAOYSA-N,-0.9299
2-[(4-methylphenyl)sulfonylamino]pentanedioic acid,,CC1=CC=C(S(=O)(=O)NC(CCC(=O)O)C(=O)O)C=C1,KKOZKXBAPIYWAT-UHFFFAOYSA-N,-0.93
"propanoic acid, 2,2'-dithiobis-",,OC(=O)CCSSCCC(O)=O,YCLSOMLVSHPPFV-UHFFFAOYSA-N,-0.9301
ethyl t-butyl ether,,CCOC(C)(C)C,NUMQCACRALPSHD-UHFFFAOYSA-N,-0.9302
"2-[2-[4-[(2-cyanoethyl)methylamino]phenyl]vinyl]-1,3,3-trimethyl-3H-indolium dihydrogen phosphate",,CN(CCC#N)c1ccc(cc1)C=CC2=[N+](C)c3ccccc3C2(C)C.O[P](O)([O-])=O,XVIVSJJRGUZEAO-UHFFFAOYSA-M,-0.93040182
tropic acid,,OCC(C(O)=O)c1ccccc1,JACRWUWPXAESPB-UHFFFAOYSA-N,-0.9305
"2,4-dimethyl-2-pentanol",,CC(C)CC(C)(C)O,FMLSQAUAAGVTJO-UHFFFAOYSA-N,-0.9307
Loracarbef,CAS76470-66-1,N[C@@H](C(=O)N[C@@H]1C(=O)N2C(C(=O)O)=C(Cl)CC[C@H]12)c1ccccc1,JAPHQRWPEGVNBT-UTUOFQBUSA-N,-0.93
(methylsulfanyl)methane,,CSC,QMMFVYPAHWMCMS-UHFFFAOYSA-N,-0.931218902
Flecainide,CAS54143-55-4,O=C(NCC1CCCCN1)c1cc(OCC(F)(F)F)ccc1OCC(F)(F)F,DJBNUMBKLMJRSA-UHFFFAOYSA-N,-0.93
"2-aminoethan-1-ol; 6-cyclohexyl-1-hydroxy-4-methyl-1,2-dihydropyridin-2-one",,CC1=CC(=O)N(O)C(=C1)C2CCCCC2.NCCO,MBRHNTMUYWQHMR-UHFFFAOYSA-N,-0.933168591
Flucytosine,CAS2022-85-7,Nc1nc(=O)[nH]cc1F,XRECTZIEBJDKEO-UHFFFAOYSA-N,-0.93
"3,6-dimethyl-1,4-dioxane-2,5-dione",,CC1OC(=O)C(C)OC1=O,JJTUDXZGHPGLLC-UHFFFAOYSA-N,-0.936025863
Didanosine,CAS69655-05-6,O=c1[nH]cnc2c1ncn2[C@H]1CC[C@@H](CO)O1,BXZVVICBKDXVGW-NKWVEPMBSA-N,-0.94
bromo(ethyl)triphenylphosphorane,,[Br-].CC[P+](c1ccccc1)(c2ccccc2)c3ccccc3,JHYNXXDQQHTCHJ-UHFFFAOYSA-M,-0.937218529
"1h-pyrazol-5-amine, 3-methyl-1-phenyl-",,Cc1cc(N)n(n1)c2ccccc2,FMKMKBLHMONXJM-UHFFFAOYSA-N,-0.9376
soman,,CC(O[P](C)(F)=O)C(C)(C)C,GRXKLBBBQUKJJZ-UHFFFAOYSA-N,-0.9383
2-(1-methylcarbamimidamido)acetic acid,,CN(CC(O)=O)C(N)=N,CVSVTCORWBXHQV-UHFFFAOYSA-N,-0.938741673
"heptanoic acid, 2-amino-, (.+-.)-",,CCCCCC(N)C(O)=O,RDFMDVXONNIGBC-UHFFFAOYSA-N,-0.94
4-nitrophenol,,OC1=CC=C(C=C1)[N+]([O-])=O,BTJIUGUIPKRLHP-UHFFFAOYSA-N,-0.94
"2',3'-dideoxyinosine;  didanosine",,OCC1CCC(O1)[N]2C=NC3=C2N=CNC3=O,BXZVVICBKDXVGW-UHFFFAOYSA-N,-0.94
colchicine,,COC1=CC=C2C(=CC1=O)C(CCC3=C2C(=C(OC)C(=C3)OC)OC)NC(C)=O,IAKHMKGGTNLKSZ-UHFFFAOYSA-N,-0.94
minocycline,,CN(C)C1C2CC3CC4=C(C=CC(=C4C(=O)C3=C(O)C2(O)C(=O)C(=C1O)C(N)=O)O)N(C)C,DYKFCLLONBREIL-UHFFFAOYSA-N,-0.94
2-Methylcyclohexanone,,C1CCCC(C)C1=O,LFSAPCRASZRSKS-UHFFFAOYSA-N,-0.94
3-amino-5-sulfobenzoic acid,,NC1=CC(S(=O)(=O)O)=CC(C(=O)O)=C1,ZYIWQQOVIPGGPG-UHFFFAOYSA-N,-0.94
aluminium(3+) ion trinitrate,,O.O.O.O.O.O.O.O.O.[Al+3].[O-][N+]([O-])=O.[O-][N+]([O-])=O.[O-][N](=O)=O,SWCIQHXIXUMHKA-UHFFFAOYSA-N,-0.940813194
2-methoxyaniline,,COc1ccccc1N,VMPITZXILSNTON-UHFFFAOYSA-N,-0.944324013
5-hydroxytryptamine,,NCCc1c[nH]c2ccc(O)cc12,QZAYGJVTTNCVMB-UHFFFAOYSA-N,-0.945
"2-chloro-n,n-diallylacetamide",,ClCC(=O)N(CC=C)CC=C,MDBGGTQNNUOQRC-UHFFFAOYSA-N,-0.9452
meparfynol carbamate,,CCC(C)(OC(N)=O)C#C,GXCDLJXPZVCHBX-UHFFFAOYSA-N,-0.9456
benzylurea,,NC(=O)NCc1ccccc1,RJNJWHFSKNJCTB-UHFFFAOYSA-N,-0.9462
"2-[(E)-2-{4-[ethyl(2-hydroxyethyl)amino]phenyl}diazen-1-yl]-6-methoxy-3-methyl-1,3-benzothiazol-3-ium chloride",,[Cl-].CCN(CCO)c1ccc(cc1)N=Nc2sc3cc(OC)ccc3[n+]2C,XZLJSWJFZGBAQT-UHFFFAOYSA-M,-0.946771482
chlorogenic acid,,O[C@@H]1C[C@](O)(C[C@@H](OC(=O)\C=C\c2ccc(O)c(O)c2)[C@@H]1O)C(O)=O,CWVRJTMFETXNAD-JUHZACGLSA-N,-0.9473
"2-butanol, 1,1,1-trichloro-",,CCC(O)C(Cl)(Cl)Cl,MJFSFJZFTQSCGW-UHFFFAOYSA-N,-0.9481
colchicine,,COC1=CC=C2C(=CC1=O)[C@H](CCc3cc(OC)c(OC)c(OC)c23)NC(C)=O,IAKHMKGGTNLKSZ-INIZCTEOSA-N,-0.9482
n-hexyl-lactamide,,CCCCCCNC(=O)C(C)O,RUUHGTZPDZPPOC-UHFFFAOYSA-N,-0.9487
sodium 4-[(3-amino-4-methylbenzoyl)amino]benzenesulfonate,,[Na+].Cc1ccc(cc1N)C(=O)Nc2ccc(cc2)[S]([O-])(=O)=O,QJGAGCZWQGHNDW-UHFFFAOYSA-M,-0.949277587
Vx agent,,CCO[P](C)(=O)SCCN(C(C)C)C(C)C,JJIUCEJQJXNMHV-UHFFFAOYSA-N,-0.95
benzadox;  2-(benzoylaminooxy)acetic  acid;  n-benzoyl-o-(carboxymethyl)hydroxylamine,,OC(=O)CONC(=O)C1=CC=CC=C1,WDRGQGLIUAMOOC-UHFFFAOYSA-N,-0.95
1-fluoroacridin-9-amine,,NC1=C2C(F)=CC=CC2=NC2=C1C=CC=C2,MGMUPJQFUAHIMG-UHFFFAOYSA-N,-0.95
3-methylaniline,,Cc1cccc(N)c1,JJYPMNFTHPTTDI-UHFFFAOYSA-N,-0.950835248
n-methylacetanilide,,CN(C(C)=O)c1ccccc1,LMTGCJANOQOGPI-UHFFFAOYSA-N,-0.951
Pentostatin,CAS53910-25-1,OC[C@H]1O[C@@H](n2cnc3c2N=CNC[C@H]3O)C[C@@H]1O,FPVKHBSQESCIEP-JQCXWYLXSA-N,-0.95
"Pyridinium, 1,1'-[(6,13-dichloro-4,11-disulfo-3,10-triphenodioxazinediyl)bis[imino-2,1-ethanediylimino[6-[(2,5-disulfophenyl)amino]-1,3,5-triazine-4,2-diyl]]]bis[3-carboxy-, dihydroxide, bis(inner salt), hexasodium salt",,[Na+].[Na+].[Na+].[Na+].[Na+].[Na+].[O-]C(=O)c1ccc[n+](c1)c2nc(NCCNc3ccc4N=C5C(=C6Oc7c(ccc(NCCNc8nc(Nc9cc(ccc9[S]([O-])(=O)=O)[S]([O-])(=O)=O)nc(n8)[n+]%10cccc(c%10)C([O-])=O)c7[S]([O-])(=O)=O)N=C6C(=C5Oc4c3[S]([O-])(=O)=O)Cl)Cl)nc(Nc%11cc(ccc%11[S]([O-])(=O)=O)[S]([O-])(=O)=O)n2,QXRUQIRSGRTEHZ-UHFFFAOYSA-H,-0.952204802
oxolan-2-ylmethyl 2-methylprop-2-enoate,,CC(=C)C(=O)OCC1CCCO1,LCXXNKZQVOXMEH-UHFFFAOYSA-N,-0.952455004
"2,6-dimethoxyphenol",,COc1cccc(OC)c1O,KLIDCXVFHGNTTM-UHFFFAOYSA-N,-0.9525
"1h-purine-2,6,8(3h)-trione, 7,9-dihydro-1,3,7,9-",,CN1C(=O)N(C)C2=C(N(C)C(=O)N2C)C1=O,QGDOQULISIQFHQ-UHFFFAOYSA-N,-0.9527
benzamide,,NC(=O)c1ccccc1,KXDAEFPNCMNJSK-UHFFFAOYSA-N,-0.953
benzyldimethyltetradecylazanium chloride,,[Cl-].CCCCCCCCCCCCCC[N+](C)(C)Cc1ccccc1,OCBHHZMJRVXXQK-UHFFFAOYSA-M,-0.953121785
1-methyl-4-carboxy-2-pyrrolodone,,CN1CC(CC1=O)C(O)=O,YHDZDIPQCVCIJS-UHFFFAOYSA-N,-0.954
cobalt(2+) hydrogen citrate,,[Co++].OC(=O)CC(O)(CC([O-])=O)C([O-])=O,FDTVUHQHHXTXLW-UHFFFAOYSA-L,-0.954573972
n-ethyl-n-nitrosourea,,CCN(N=O)C(N)=O,FUSGACRLAFQQRL-UHFFFAOYSA-N,-0.9547
2-acetylthiophene,,CC(=O)c1sccc1,WYJOVVXUZNRJQY-UHFFFAOYSA-N,-0.9549
"hexasodium 4-amino-3,6-bis[(E)-2-[5-({4-chloro-6-[(3-sulfonatophenyl)amino]-1,3,5-triazin-2-yl}amino)-2-sulfonatophenyl]diazen-1-yl]-5-hydroxynaphthalene-2,7-disulfonate",,[Na+].[Na+].[Na+].[Na+].[Na+].[Na+].Nc1c(N=Nc2cc(Nc3nc(Cl)nc(Nc4cccc(c4)[S]([O-])(=O)=O)n3)ccc2[S]([O-])(=O)=O)c(cc5C=C(/C(=N/Nc6cc(Nc7nc(Cl)nc(Nc8cccc(c8)[S]([O-])(=O)=O)n7)ccc6[S]([O-])(=O)=O)C(=O)c15)[S]([O-])(=O)=O)[S]([O-])(=O)=O,UILQUTBIXJZSTN-NZHDPOKYSA-H,-0.957205517
"nonanoic acid, 9-oxo-",,OC(=O)CCCCCCCC=O,WLGDDELKYAWBBL-UHFFFAOYSA-N,-0.9574
diethyl succinate,,CCOC(=O)CCC(=O)OCC,DKMROQRQHGEIOW-UHFFFAOYSA-N,-0.96
3-pentenenitrile,,N#CCC=CC,UVKXJAUUKPDDNW-UHFFFAOYSA-N,-0.96
"4-(1-hydroxy-2-methylaminoethyl)benzene-1,2-diol",,CNCC(O)C1=CC(O)=C(O)C=C1,UCTWMZQNUQWSLP-UHFFFAOYSA-N,-0.96
"4-(2-oxo-1,3,3~{a},4,5,6,7,7~{a}-octahydrobenzimidazol-4-yl)butanoic acid",,O=C(O)CCCC1CCCC2NC(=O)NC12,KCUZHOVRGQTHKG-UHFFFAOYSA-N,-0.96
{2-[(2-methylprop-2-enoyl)oxy]ethoxy}phosphonic acid,,CC(=C)C(=O)OCCO.O[P](O)(O)=O,POLZHVHESHDZRD-UHFFFAOYSA-N,-0.960255718
"2-[(E)-2-[4-(diethylamino)phenyl]ethenyl]-1,3,3-trimethyl-3H-indol-1-ium acetate",,CCN(CC)c1ccc(cc1)C=CC2=[N+](C)c3ccccc3C2(C)C.CC([O-])=O,KEUVYXFBMUFRGG-UHFFFAOYSA-M,-0.960418782
"l-alanine, n-[(ethylthio)thioxomethyl]-",,CCSC(=S)N[C@@H](C)C(O)=O,WCIZDTOYENGUEG-BYPYZUCNSA-N,-0.9613
Minocycline Hydrochloride,CAS13614-98-7,CN(C)c1ccc(O)c2c1C[C@H]1C[C@H]3[C@H](N(C)C)C(O)=C(C(N)=O)C(=O)[C@@]3(O)C(O)=C1C2=O.Cl,GLMUAFMGXXHGLU-VQAITOIOSA-N,-0.96
"1,3,2-oxazaphosphepin-2(3h)-amine, n,n-bis(2-chl",,ClCCN(CCCl)[P]1(=O)NCCCCO1,VTLAANPLIFGAFQ-UHFFFAOYSA-N,-0.9624
dimethoate,,CNC(=O)CS[P](=S)(OC)OC,MCWXGJITAZMZEV-UHFFFAOYSA-N,-0.9624
disodium (Z)-1-(octadec-9-enyl) 2-sulphonatosuccinate,,[Na+].[Na+].CCCCCCCC/C=C/CCCCCCCCOC(=O)C(CC([O-])=O)[S]([O-])(=O)=O,IUCZYYMCWMKCMD-TTWKNDKESA-L,-0.962426912
Atomoxetine,CAS1643684-06-3,CNCC[C@@H](Oc1ccccc1C)c1ccccc1,VHGCDTVCOLNTBX-QGZVFWFLSA-N,-0.96
"peroxide, bis(1-oxopropyl)",,CCC(=O)OOC(=O)CC,KOPQZJAYZFAPBC-UHFFFAOYSA-N,-0.9634
"glycine, n-[n-(2-bromo-1-oxopropyl)glycyl]-, (.+",,CC(Br)C(=O)NCC(=O)NCC(O)=O,XDBDRCFCQAKVQM-UHFFFAOYSA-N,-0.9642
Azlocillin,CAS37091-66-0,CC1(C(N2C(S1)C(C2=O)NC(=O)C(C3=CC=CC=C3)NC(=O)N4CCNC4=O)C(=O)O)C,JTWOMNBEOCYFNV-UHFFFAOYSA-N,-0.97
"l-alanine, n-(aminocarbonyl)-",,C[C@H](NC(N)=O)C([O-])=O,LUSWEUMSEVLFEQ-REOHCLBHSA-M,-0.9656
"sodium 3,5-bis(methoxycarbonyl)benzene-1-sulfonate",,[Na+].COC(=O)c1cc(cc(c1)[S]([O-])(=O)=O)C(=O)OC,LLHSEQCZSNZLRI-UHFFFAOYSA-M,-0.966481992
"2-cyclohexen-1-one, oxime, (z)-",,O\N=C/1CCCC=C1,WNPVAXLJVUXYFU-VOTSOKGWSA-N,-0.9667
2-ethoxyethyl 2-methylprop-2-enoate,,CCOCCOC(=O)C(C)=C,SFPNZPQIIAJXGL-UHFFFAOYSA-N,-0.96747386
"disodium 4-[(E)-2-{2,4-dihydroxy-5-[(E)-2-(2-hydroxy-3,5-dinitrophenyl)diazen-1-yl]-3-[(E)-2-(4-nitrophenyl)diazen-1-yl]phenyl}diazen-1-yl]-5-hydroxynaphthalene-2,7-disulfonate",,[Na+].[Na+].Oc1cc(cc2cc(cc(N=Nc3cc(N=Nc4cc(cc(c4O)[N+]([O-])=O)[N+]([O-])=O)c(O)c(N=Nc5ccc(cc5)[N+]([O-])=O)c3O)c12)[S]([O-])(=O)=O)[S]([O-])(=O)=O,SKCQDFLBBMGDPT-UHFFFAOYSA-L,-0.967567025
o-acetyl-6-deoxyacyclovir,,CC(=O)OCCOC[N]1C=NC2=C1N=C(N)N=C2,ZGBDUUGWUHBQNX-UHFFFAOYSA-N,-0.97
"1-chloro-2,5-pyrrolidinedione",,ClN1C(=O)CCC1=O,JRNVZBWKYDBUCA-UHFFFAOYSA-N,-0.9702
"ethane, [(iodomethyl)sulfonyl]-",,CC[S](=O)(=O)CI,CIYXRBRHNLTRPC-UHFFFAOYSA-N,-0.9714
Quetiapine Fumarate,CAS111974-72-2,O=C(O)/C=C/C(=O)O.OCCOCCN1CCN(C2=Nc3ccccc3Sc3ccccc32)CC1.OCCOCCN1CCN(C2=Nc3ccccc3Sc3ccccc32)CC1,ZTHJULTYCAQOIJ-WXXKFALUSA-N,-0.97
"benzeneacetonitrile, .alpha.-(diethylamino)-",,CCN(CC)C(C#N)c1ccccc1,MNUHBMWEFILMEW-UHFFFAOYSA-N,-0.9738
3-chlorophthalic acid,,OC(=O)c1cccc(Cl)c1C(O)=O,BKFXSOCDAQACQM-UHFFFAOYSA-N,-0.976
4-hydroxybenzaldehyde,,Oc1ccc(C=O)cc1,RGHHSNMVTDWUBI-UHFFFAOYSA-N,-0.9762
"N,N-dimethylcyclohexanamine",,CN(C)C1CCCCC1,SVYKKECYCPFKGB-UHFFFAOYSA-N,-0.977488142
cyclohex-3-ene-1-carbaldehyde,,O=CC1CCC=CC1,DCFDVJPDXYGCOK-UHFFFAOYSA-N,-0.977550168
2-methoxy-2-methylbutane,,CCC(C)(C)OC,HVZJRWJGKQPSFL-UHFFFAOYSA-N,-0.979563677
4-aminoacetanilide,,O=C(Nc(ccc(N)c1)c1)C,CHMBIJAOCISYEW-UHFFFAOYSA-N,-0.98
"2-(1,5-dimethylpyrazol-3-yl)oxypyridine",,CC1=CC(OC2=CC=CC=N2)=NN1C,RSIACKNMAYEADD-UHFFFAOYSA-N,-0.98
2-(2-cyanoethylamino)-3-methylpentanoic acid,,CCC(C)C(NCCC#N)C(=O)O,SYLKPFKVJHIHES-UHFFFAOYSA-N,-0.98
"N,N'-dicyclohexylethane-1,2-diamine",,C1CCC(NCCNC2CCCCC2)CC1,JMRWVHXGVONXEZ-UHFFFAOYSA-N,-0.98
Gentamicin C1 Sulfate,CAS 25876-10-2,CN[C@@H](C)[C@@H]1CC[C@@H](N)C(O[C@@H]2[C@@H](N)C[C@@H](N)C(O[C@H]3OC[C@](C)(O)[C@H](NC)[C@H]3O)[C@@H]2O)O1,CEAZRRDELHUEMR-VKOUOHSESA-N,-0.98