Name,ID,SMILES,inchi,LogS
phenanthridine,,c1ccc2c(c1)cnc3ccccc23,RDOWQLZANAYVLL-UHFFFAOYSA-N,-2.7763
tert-butyl benzenecarboperoxoate,,CC(C)(C)OOC(=O)c1ccccc1,GJBRNHKUVLOCEB-UHFFFAOYSA-N,-2.776432949
"4-allyl-1,2-dimethoxybenzene",,COc1ccc(\C=C\C)cc1OC,NNWHUJCUHAELCL-SNAWJCMRSA-N,-2.778226795
alizarine,,Oc1ccc2C(=O)c3ccccc3C(=O)c2c1O,RGCKGOZRHPZPFP-UHFFFAOYSA-N,-2.7785
Methacrifos,,COC(=O)C(/C)=C/O[P](=S)(OC)OC,NTAHCMPOMKHKEU-AATRIKPKSA-N,-2.7785
tris(2-butoxyethyl) phosphate,,CCCCOCCO[P](=O)(OCCOCCCC)OCCOCCCC,WTLBZVNBAKMVDP-UHFFFAOYSA-N,-2.778562332
1-chloro-4-methoxybenzene,,COc1ccc(Cl)cc1,YRGAYAGBVIXNAQ-UHFFFAOYSA-N,-2.779325494
"n1,n4-diacetylsulfanilamide;  n4-acetylsulfacetamide",,CC(=O)NC1=CC=C(C=C1)[S](=O)(=O)NC(C)=O,YTJJPFRVBNFIBN-UHFFFAOYSA-N,-2.78
"s6,9-bis(propanoyloxymethyl)-6-mercaptopurine",,CCC(=O)OCSC1=NC=NC2=C1N=C[N]2COC(=O)CC,CTMFEUPSVOSORU-UHFFFAOYSA-N,-2.78
di(phenyl)methanimine,,N=C(c1ccccc1)c2ccccc2,SXZIXHOMFPUIRK-UHFFFAOYSA-N,-2.781128006
"1,2-diiodoethene (cis)",,I\C=C/I,CVOGMKGEVNGRSK-UPHRSURJSA-N,-2.7813
m-chloroanisole,,COc1cccc(Cl)c1,YUKILTJWFRTXGB-UHFFFAOYSA-N,-2.783
4-(propan-2-yl)benzaldehyde,,CC(C)c1ccc(C=O)cc1,WTWBUQJHJGUZCY-UHFFFAOYSA-N,-2.785256582
disodium 3-[(E)-2-{4-[(E)-2-(7-amino-1-hydroxy-3-sulfonatonaphthalen-2-yl)diazen-1-yl]naphthalen-1-yl}diazen-1-yl]-2-hydroxybenzoate,,[Na+].[Na+].Nc1ccc2cc(c(N=Nc3ccc(N=Nc4cccc(C([O-])=O)c4O)c5ccccc35)c(O)c2c1)[S]([O-])(=O)=O,QENJECLVTWIZIG-UHFFFAOYSA-L,-2.786820452
"hexanamide, n-(aminocarbonyl)-2-ethylidene-",,CCCC\C(=C\C)C(=O)NC(N)=O,AUJBYHKZNPPODV-DAXSKMNVSA-N,-2.7883
heroin,,CN1CC[C@]23[C@H]4Oc5c(OC(C)=O)ccc(C[C@@H]1[C@@H]2C=C[C@@H]4OC(C)=O)c35,GVGLGOZIDCSQPN-PVHGPHFFSA-N,-2.7894
"phosphinic acid, mesityl-",,Cc1cc(C)c(c(C)c1)[PH](O)=O,URXMWXKQTQWZQB-UHFFFAOYSA-N,-2.7896
quinine,,COC1=CC=C2N=CC=C(C(O)C3CC4CCN3CC4C=C)C2=C1,LOUPRKONTZGTKE-UHFFFAOYSA-N,-2.79
brucine * 4 h2o,,COC1=CC2=C(C=C1OC)C34CCN5CC6=CCOC7CC(=O)N2C3C7C6CC45,RRKTZKIUPZVBMF-UHFFFAOYSA-N,-2.79
"4-methyl-5-(2-nitrobenzenesulfonylimido)-delta2-1,3,4-thiadiazoline-2-sulfonamide",,CN1N=C(SC1=N[S](=O)(=O)C2=CC=CC=C2[N+]([O-])=O)[S](N)(=O)=O,QHRGLLUMIFLPBM-UHFFFAOYSA-N,-2.79
N-Hydroxy-n-(2-methylphenyl)-3-phenylpropanamide,,CC1=C(N(O)C(=O)CCC2=CC=CC=C2)C=CC=C1,XXUCURAGFNEYDY-UHFFFAOYSA-N,-2.79
quinine,,[H]C1(CN2CCC1C[C@@]2([H])[C@H](O)C1=CC=NC2=C1C=C(OC)C=C2)C=C,LOUPRKONTZGTKE-LFDRZELQSA-N,-2.79
"1,4-dibromobutane",,BrCCCCBr,ULTHEAFYOOPTTB-UHFFFAOYSA-N,-2.790216782
"benzoic acid, 2,2'-(1-oxo-1,2-ethanediyl)bis-",,OC(=O)c1ccccc1CC(=O)c2ccccc2C(O)=O,YPNGOYFSQMSAOZ-UHFFFAOYSA-N,-2.791
Clodronic Acid,CAS10596-23-3,O=P(O)(O)C(Cl)(Cl)P(=O)(O)O,ACSIXWWBWUQEHA-UHFFFAOYSA-N,-2.79
Indapamide,CAS26807-65-8,CC1Cc2ccccc2N1NC(=O)c1ccc(Cl)c(S(N)(=O)=O)c1,NDDAHWYSQHTHNT-UHFFFAOYSA-N,-2.79
3-phenylprop-2-en-1-yl acetate,,CC(=O)OC\C=C\c1ccccc1,WJSDHUCWMSHDCR-VMPITWQZSA-N,-2.792724534
trimethoxy-(6-trimethoxysilylhexyl)silane,,CO[Si](CCCCCC[Si](OC)(OC)OC)(OC)OC,GFKCWAROGHMSTC-UHFFFAOYSA-N,-2.792947984
"1-naphthalenecarboxylic acid, 3,4-dihydro-",,OC(=O)C1=CCCc2ccccc12,JNPFDSPGHQBUPF-UHFFFAOYSA-N,-2.7939
1-(2-naphthyl)ethanone,,CC(=O)c1ccc2ccccc2c1,XSAYZAUNJMRRIR-UHFFFAOYSA-N,-2.796418719
2-ethylnitrobenzene,,CCc1ccccc1[N+]([O-])=O,PXWYZLWEKCMTEZ-UHFFFAOYSA-N,-2.7993
5-ethyl-5-propyl-2-thiobarbituric acid,,CCCC1(CC)C(=O)NC(=S)NC1=O,LMMVXCXLEUVMEE-UHFFFAOYSA-N,-2.8
4-nitrobenzoic_acid,,O=C(O)c(ccc(N(=O)=O)c1)c1,OTLNPYWUJOZPPA-UHFFFAOYSA-N,-2.8
5-nitro-2-prop-2-enoxyaniline,,C=CCOC1=C(C=C(C=C1)[N+](=O)[O-])N,FLPHVXHNKUPMTF-UHFFFAOYSA-N,-2.8
"1,2-di(phenyl)ethane-1,2-dione",,O=C(C(=O)C1=CC=CC=C1)C1=CC=CC=C1,WURBFLDFSFBTLW-UHFFFAOYSA-N,-2.8
tetrafluoroethylene,,FC(F)=C(F)F,BFKJFAAPBSQJPD-UHFFFAOYSA-N,-2.8001
"N',N'''''-hexane-1,6-diylbis[N-(4-chlorophenyl)(imidodicarbonimidic diamide)]",,NC(Nc1ccc(Cl)cc1)=NC(N)=NCCCCCCN=C(N)N=C(N)Nc2ccc(Cl)cc2,GHXZTYHSJHQHIJ-UHFFFAOYSA-N,-2.800595088
Spiroxamine,,CCCN(CC)CC1COC2(CCC(CC2)C(C)(C)C)O1,PUYXTUJWRLOUCW-UHFFFAOYSA-N,-2.8014
"4,7-dichloroquinoline",,Clc1ccc2c(Cl)ccnc2c1,HXEWMTXDBOQQKO-UHFFFAOYSA-N,-2.802624638
Etonogestrel,CAS54048-10-1,C#C[C@]1(O)CC[C@H]2[C@@H]3CCC4=CC(=O)CC[C@@H]4[C@H]3C(=C)C[C@@]21CC,GCKFUYQCUCGESZ-BPIQYHPVSA-N,-2.8
thiazolsulfone,,Nc1ccc(cc1)[S](=O)(=O)c2sc(N)nc2,KVEZIRCKNOTGKY-UHFFFAOYSA-N,-2.805
"1,1'-[methylenebis(oxy)]dibutane",,CCCCOCOCCCC,QLCJOAMJPCOIDI-UHFFFAOYSA-N,-2.806877
"6,8,9-trinitro-2,4-dioxa-3-plumbabicyclo[3.3.1]nona-1(9),5,7-triene",,[Pb++].[O-]c1c(cc(c([O-])c1[N+]([O-])=O)[N+]([O-])=O)[N+]([O-])=O,WETZJIOEDGMBMA-UHFFFAOYSA-L,-2.808391369
(dichloromethyl)benzene,,ClC(Cl)c1ccccc1,CAHQGWAXKLQREW-UHFFFAOYSA-N,-2.809
"3,5-pyridinedicarboxylic acid, 2,6-dimethyl-",,Cc1nc(C)c(cc1C(O)=O)C(O)=O,WQFXJSOUBPGBGW-UHFFFAOYSA-N,-2.809
digallic acid,,OC(=O)c1cc(O)c(O)c(OC(=O)c2cc(O)c(O)c(O)c2)c1,COVFEVWNJUOYRL-UHFFFAOYSA-N,-2.8092
"2,3-dichlorophenoxyacetic acid",,OC(=O)COc1cccc(Cl)c1Cl,RBJIGQRZLITQJG-UHFFFAOYSA-N,-2.8097
1-cyclohexyl-3-decylurea,,CCCCCCCCCCNC(=O)NC1CCCCC1,LPXYBLIRYGCMPQ-UHFFFAOYSA-N,-2.81
"4,6-di(isopropylamino)-1,3,5-triazine-2(1h)-one;   ""hydroxypropazine""",,CC(C)NC1=NC(=NC(=O)N1)NC(C)C,RUOTUMSRCIMLJK-UHFFFAOYSA-N,-2.81
1-propanoylallopurinol,,CCC(=O)[N]1N=CC2=C1N=CNC2=O,ZUXVZGNVGRXENQ-UHFFFAOYSA-N,-2.81
"3,3-dimethyl-7-oxo-6-[[2-(phenoxy)acetyl]amino]-4-thia-1-azabicyclo[3.2.0]heptane-2-carboxylic acid",,CC1(C)SC2C(NC(=O)COC3=CC=CC=C3)C(=O)N2C1C(=O)O,BPLBGHOLXOTWMN-UHFFFAOYSA-N,-2.81
metazachlor,,Cc1cccc(C)c1N(Cn2cccn2)C(=O)CCl,STEPQTYSZVCJPV-UHFFFAOYSA-N,-2.8102
1-chloro-4-nitrobenzene,,[O-][N+](=O)c1ccc(Cl)cc1,CZGCEKJOLUNIFY-UHFFFAOYSA-N,-2.811828673
"quinoxaline-1,4-dihydro-2,3-dione",,O=C1Nc2ccccc2NC1=O,ABJFBJGGLJVMAQ-UHFFFAOYSA-N,-2.812
6'-methoxycinchonan-9-ol,,COc1ccc2nccc([C@@H](O)[C@@H]3CC4CCN3C[C@@H]4C=C)c2c1,LOUPRKONTZGTKE-VOMFEXJBSA-N,-2.81214297
6'-methoxycinchonan-9-ol,,COc1ccc2nccc([C@H](O)[C@H]3C[C@@H]4CCN3C[C@@H]4C=C)c2c1,LOUPRKONTZGTKE-LHHVKLHASA-N,-2.81214297
"1,8,15,22-tetraazacyclooctacosane-2,9,16,23-tetr",,O=C1CCCCCNC(=O)CCCCCNC(=O)CCCCCNC(=O)CCCCCN1,LAIGWNLGTIDKPL-UHFFFAOYSA-N,-2.8126
benznidazole,,[O-][N+](=O)c1nccn1CC(=O)NCc2ccccc2,CULUWZNBISUWAS-UHFFFAOYSA-N,-2.813
"2-[(6-oxobenzo[c][2,1]benzoxaphosphinin-6-yl)methyl]butanedioic acid",,OC(=O)CC(C[P]1(=O)Oc2ccccc2c3ccccc13)C(O)=O,XZAXQWXHBDKYJI-UHFFFAOYSA-N,-2.813509506
"1,2-anthracenedicarboxylic acid, 9,10-dihydro-9,",,OC(=O)c1ccc2C(=O)c3ccccc3C(=O)c2c1C(O)=O,QQPQYWGNVMIGAF-UHFFFAOYSA-N,-2.8141
"1,3-diethyl 2-butylpropanedioate",,CCCCC(C(=O)OCC)C(=O)OCC,RPNFNBGRHCUORR-UHFFFAOYSA-N,-2.816496397
Ergotamine  Tartrate,CAS379-79-3,CN1C[C@H](C(=O)N[C@]2(C)O[C@@]3(O)[C@@H]4CCCN4C(=O)[C@H](Cc4ccccc4)N3C2=O)C=C2c3cccc4[nH]cc(c34)C[C@H]21.O=C(O)C(O)C(O)C(=O)O,NMTWKEWYQXZGCI-DDLCCZDQSA-N,-2.82
"1,2-xylene",,Cc1ccccc1C,CTQNGGLPUBDAKN-UHFFFAOYSA-N,-2.81916776
"1,4-xylene",,Cc1ccc(C)cc1,URLKBWYHVLBVBO-UHFFFAOYSA-N,-2.81916776
6-(prop-2-enoyloxy)hexyl prop-2-enoate,,C=CC(=O)OCCCCCCOC(=O)C=C,FIHBHSQYSYVZQE-UHFFFAOYSA-N,-2.819336696
azacyclotridecan-2-one,,O=C1CCCCCCCCCCCN1,JHWNWJKBPDFINM-UHFFFAOYSA-N,-2.81950432
sulfaperine,,Cc1cnc(N[S](=O)(=O)c2ccc(N)cc2)nc1,DZQVFHSCSRACSX-UHFFFAOYSA-N,-2.82
benzyl  5-fluorouracil-1-carboxylate;  1-benzyloxycarbonyl-5-fluorouracil,,FC1=CN(C(=O)NC1=O)C(=O)OCC2=CC=CC=C2,YJRPDIKAMSSUAS-UHFFFAOYSA-N,-2.82
"4,7-pteridinedione;  4,7(3h,8h)-pteridinedione",,O=C1NC2=C(N=C1)C(=O)NC=N2,GZSFNZAVQZGNTG-UHFFFAOYSA-N,-2.82
cgp 65015;  (+)-3-hydroxy-1-(2-hydroxyethyl)-2-(alpha-hydroxybenzyl)-1h-pyridin-4-one,,OCCN1C=CC(=O)C(=C1C(O)C2=CC=CC=C2)O,ZMDGUPJAPMSCIZ-UHFFFAOYSA-N,-2.82
"boc-phe-his-sta-leu-nhch(cooh)ch2-c6h4-3-nh2,  tetrapeptide derivative (15)",,CC(C)CC(NC(=O)C(CC1=C[NH]C=N1)NC(=O)C(CC2=CC=CC=C2)NC(=O)OC(C)(C)C)C(O)CC(=O)NC(CC(C)C)C(=O)NC(CC3=CC(=CC=C3)CN)C(O)=O,LRXFYFDTOXXRTI-UHFFFAOYSA-N,-2.82
Methazole,,CN2C(=O)ON(c1ccc(Cl)c(Cl)c1)C2=O,LRUUNMYPIBZBQH-UHFFFAOYSA-N,-2.82
Ajmaline,,c1ccc2N(C)C3C4CC5C(CC)C(O)N4C(C56)CC3(C6O)c2c1,CJDRUOGAGYHKKD-UHFFFAOYSA-N,-2.82
4-oxa-1-thiaspiro[4.5]decan-3-ylmethyl carbamate,,NC(=O)OCC1CSC2(CCCCC2)O1,WXAUMUJAOKGUCL-UHFFFAOYSA-N,-2.82
"N-hydroxy-2,2-dipropyloctanamide",,CCCCCCC(CCC)(CCC)C(=O)NO,VOGKEZAPBBRLPB-UHFFFAOYSA-N,-2.82
"N,N-dimethyl-2-(1-phenyl-1-pyridin-2-ylethoxy)ethanamine",,CN(C)CCOC(C)(C1=CC=CC=C1)C1=CC=CC=N1,HCFDWZZGGLSKEP-UHFFFAOYSA-N,-2.82
"N-(3-bromophenyl)-8H-pyrrolo[3,2-g]quinazolin-4-amine",,BrC1=CC=CC(NC2=NC=NC3=CC4=C(C=CN4)C=C32)=C1,BBFWQWIFLDQYQQ-UHFFFAOYSA-N,-2.82
"2,2',2'',2'''-(ethane-1,2-diyldinitrilo)tetraacetonitrile",,N#CCN(CCN(CC#N)CC#N)CC#N,FDWRKVKXYZRYOD-UHFFFAOYSA-N,-2.820404347
"androsta-1,4-diene-3,17-dione",,CC12CCC3C(CCC4=CC(=O)C=CC34C)C1CCC2=O,LUJVUUWNAPIQQI-UHFFFAOYSA-N,-2.820459609
"3-({9,10-dioxo-4-[(2,4,6-trimethyl-3-sulfophenyl)amino]-9,10-dihydroanthracen-1-yl}amino)-2,4,6-trimethylbenzene-1-sulfonic acid; hexane-1,6-diamine",,Cc1cc(C)c(c(C)c1Nc2ccc(Nc3c(C)cc(C)c(c3C)[S](O)(=O)=O)c4C(=O)c5ccccc5C(=O)c24)[S](O)(=O)=O.NCCCCCCN,PAGCKSAVALMKPU-UHFFFAOYSA-N,-2.820609377
Zirconium propionate,,[Zr+4].CCC([O-])=O,TVCBSVKTTHLKQC-UHFFFAOYSA-M,-2.823279191
1-pentanethiol,,CCCCCS,ZRKMQKLGEQPLNS-UHFFFAOYSA-N,-2.8248
"1,3-dimethyl benzene-1,3-dicarboxylate",,COC(=O)c1cccc(c1)C(=O)OC,VNGOYPQMJFJDLV-UHFFFAOYSA-N,-2.825819918
(3-phenoxyphenyl)methanol,,OCc1cccc(Oc2ccccc2)c1,KGANAERDZBAECK-UHFFFAOYSA-N,-2.825873142
parathion-amino,,CCO[P](=S)(OCC)Oc1ccc(N)cc1,XIZOTXGJXSTQDI-UHFFFAOYSA-N,-2.826
"1,4-benzenedicarboxaldehyde",,O=Cc1ccc(C=O)cc1,KUCOHFSKRZZVRO-UHFFFAOYSA-N,-2.8265
"2,2-dimethyl-3-(3-methylphenyl)propan-1-ol",,Cc1cccc(CC(C)(C)CO)c1,FYMOBFDUZIDKMI-UHFFFAOYSA-N,-2.826535469
ajmaline,,CC[C@@H]1[C@@H](O)N2[C@H]3C[C@@H]1C4C(O)[C@@]5(C[C@H]24)[C@H]3N(C)c6ccccc56,CJDRUOGAGYHKKD-QFTSDIPNSA-N,-2.8266
"4,4-bis(dimethylamino)benzophenone",,CN(C)c1ccc(cc1)C(=O)c2ccc(cc2)N(C)C,VVBLNCFGVYUYGU-UHFFFAOYSA-N,-2.8267
dichlorprop,,CC(Oc1ccc(Cl)cc1Cl)C(O)=O,MZHCENGPTKEIGP-UHFFFAOYSA-N,-2.8271
"propionic acid, 3-ethoxy-, hexyl ester",,CCCCCCOC(=O)CCOCC,ZASWBHFDPXLANO-UHFFFAOYSA-N,-2.8289
allopurin-1-yl-methyl  butyrate;   1-(butanoyloxymethyl)allopurinol,,CCCC(=O)OC[N]1N=CC2=C1N=CNC2=O,IIVOEPVKDWTLJB-UHFFFAOYSA-N,-2.83
propanoyloxymethyl  nalidixate;  nalidixic acid propanoyloxymethyl ester,,CCN1C=C(C(=O)OCOC(=O)CC)C(=O)C2=C1N=C(C)C=C2,YXRWLNMEWXCOIE-UHFFFAOYSA-N,-2.83
acetaminophen  butyrate,,CCCC(=O)OC1=CC=C(NC(C)=O)C=C1,AHSNWUAHWPTIFM-UHFFFAOYSA-N,-2.83
4-[2-(4-oxopentan-2-ylideneamino)ethylimino]pentan-2-one,,CC(=O)CC(C)=NCCN=C(C)CC(C)=O,PZRFMNQRPVQCIT-UHFFFAOYSA-N,-2.83
"2,2-bis(2-chlorophenoxy)acetic acid",,O=C(O)C(OC1=C(Cl)C=CC=C1)OC1=C(Cl)C=CC=C1,XBYHGNVNQLXAGB-UHFFFAOYSA-N,-2.83
2-[2-(2-carboxybenzoyl)oxyethoxycarbonyl]benzoic acid,,O=C(O)C1=C(C(=O)OCCOC(=O)C2=C(C(=O)O)C=CC=C2)C=CC=C1,KJDIOINTBBPCAD-UHFFFAOYSA-N,-2.83
1-(4-fluorophenyl)-4-[4-(4-fluorophenyl)-4-hydroxypiperidin-1-yl]butan-1-one,,O=C(CCCN1CCC(O)(C2=CC=C(F)C=C2)CC1)C1=CC=C(F)C=C1,XDFPJEPCZSJPQC-UHFFFAOYSA-N,-2.83
Neomenthol,,CC(C)[C@H]1CC[C@@H](C)CC1O,NOOLISFMXDJSKH-MGRQHWMJSA-N,-2.830260853
"N,N-dimethyl[(dimethylcarbamothioyl)sulfanyl]carbothioamide",,CN(C)C(=S)SC(=S)N(C)C,REQPQFUJGGOFQL-UHFFFAOYSA-N,-2.830299065
"(2E)-3-(3,4,5-trimethoxyphenyl)prop-2-enoic acid",,COc1cc(\C=C\C(O)=O)cc(OC)c1OC,YTFVRYKNXDADBI-SNAWJCMRSA-N,-2.830470194
"1,3-xylene",,Cc1cccc(C)c1,IVSZLXZYQVIEFR-UHFFFAOYSA-N,-2.832869038
Betaxolol,CAS63659-18-7,CC(C)NCC(O)COc1ccc(CCOCC2CC2)cc1,NWIUTZDMDHAVTP-UHFFFAOYSA-N,-2.83
dimethyl 2-nitroterephthalate,,COC(=O)c1ccc(C(=O)OC)c(c1)[N+]([O-])=O,PAYWCKGMOYQZAW-UHFFFAOYSA-N,-2.835904882
Esomeprazole Magnesium,CAS161973-10-0,COc1ccc2[n-]c(S(=O)Cc3ncc(C)c(OC)c3C)nc2c1.COc1ccc2[n-]c(S(=O)Cc3ncc(C)c(OC)c3C)nc2c1.[Mg+2],KWORUUGOSLYAGD-UHFFFAOYSA-N,-2.84
Omeprazole,CAS73590-58-6,COc1ccc2[nH]c(S(=O)Cc3ncc(C)c(OC)c3C)nc2c1,SUBDBMMJDZJVOS-UHFFFAOYSA-N,-2.84
5'-butanoyl-idoxuridine; 5'-butanoyl-5-iodo-2'-deoxyuridine; 5'-butanoyl-idu,,CCCC(=O)OCC1OC(CC1O)N2C=C(I)C(=O)NC2=O,KDBSFQVOZZGNJK-UHFFFAOYSA-N,-2.84
4-acetoxybenzaldehydesemicarbazone,,CC(=O)OC1=CC=C(C=C1)\C=N\NC(N)=O,YIRVJBITGXXLMK-WUXMJOGZSA-N,-2.84
"2-sulfamoyl-4-methyl-5-(4-tolylsulfonylimido)-1,3,4-thiadiazoline; 5-(4-methylbenzenesulfonylimido)-4-methyl-delta2-1,3,4-thiadiazoline-2-sulfonamide",,CN1N=C(SC1=N[S](=O)(=O)C2=CC=C(C)C=C2)[S](N)(=O)=O,JGNXJEMYLRMWGB-UHFFFAOYSA-N,-2.84
4-chloroacetanilide,,O=C(Nc(ccc(c1)Cl)c1)C,GGUOCFNAWIODMF-UHFFFAOYSA-N,-2.84
(2-diethylamino-1-phenylethyl) 4-nitrobenzoate,,CCN(CC)CC(C1=CC=CC=C1)OC(=O)C2=CC=C(C=C2)[N+](=O)[O-],PZKUSJLTKDVNCX-UHFFFAOYSA-N,-2.84
hydroxy-[6-[hydroxy(oxo)azaniumyl]oxyhexan-2-yloxy]-oxoazanium,,CC(CCCCO[N+](=O)O)O[N+](=O)O,HLTARDPWGUYYMH-UHFFFAOYSA-N,-2.84
Propane  ,,CCC,ATUOYWHBWRKTHZ-UHFFFAOYSA-N,-2.84
4-methoxy-2-nitrophenol,,COc1ccc(O)c(c1)[N+]([O-])=O,YBUGOACXDPDUIR-UHFFFAOYSA-N,-2.8409
4-(trifluoromethyl)aniline,,Nc1ccc(cc1)C(F)(F)F,ODGIMMLDVSWADK-UHFFFAOYSA-N,-2.847330143
azacyclononadecan-2-one,,O=C1CCCCCCCCCCCCCCCCCN1,ABTUPTPDCSVHOI-UHFFFAOYSA-N,-2.8474
bicyclo[2.2.1]hept-2-ene,,C1CC2CC1C=C2,JFNLZVQOOSMTJK-UHFFFAOYSA-N,-2.847721205
4-methyl-3-nitrobenzoic acid,,Cc1ccc(cc1[N+]([O-])=O)C(O)=O,BBEWSMNRCUXQRF-UHFFFAOYSA-N,-2.848098023
"glycine, n-naphthalene-2-sulfonyl)-",,[O-]C(=O)CN[S](=O)(=O)c1ccc2ccccc2c1,MTFDMQASMMCFHB-UHFFFAOYSA-M,-2.8497
"2-hydroxy-1,2-diphenylethan-1-one",,OC(c1ccccc1)C(=O)c2ccccc2,ISAOCJYIOMOJEB-UHFFFAOYSA-N,-2.849722352
"3-aziridin-1-yl-4,6-dinitro-(n-methyl)benzamide",,CNC(=O)C1=CC(=C(C=C1[N+]([O-])=O)[N+]([O-])=O)N2CC2,KNLCLQCILLJWHK-UHFFFAOYSA-N,-2.85
"n1,n1,n4-trimethyl-n4-pentanoylsulfanilamide",,CCCCC(=O)N(C)C1=CC=C(C=C1)[S](=O)(=O)N(C)C,HCFYDULVKOUISH-UHFFFAOYSA-N,-2.85
"trans, trans-muconic acid;  trans, trans-1,3-butadiene-1,4-dicarboxylic acid;  trans,trans-hexa-2,4-dienedioic acid",,OC(=O)\C=C\C=C\C(O)=O,TXXHDPDFNKHHGW-ZPUQHVIOSA-N,-2.85
"boc-phe-his-sta-leu-nhch2-ph--3-ch2nh2, analog 11",,CC(C)CC(NC(=O)C(CC1=C[NH]C=N1)NC(=O)C(CC2=CC=CC=C2)NC(=O)OC(C)(C)C)C(O)CC(=O)NC(CC(C)C)C(=O)NCC3=CC=CC(=C3)CN,HCQSWAXEJLAQFZ-UHFFFAOYSA-N,-2.85
Benzoin,,c1ccccc1C(=O)Oc2ccccc2,FCJSHPDYVMKCHI-UHFFFAOYSA-N,-2.85
"3,4-Dihydro-1H-1,4-benzodiazepine-2,5-dione",,O=C1CNC(=O)C2=C(C=CC=C2)N1,AZHGGDCFQPMANU-UHFFFAOYSA-N,-2.85
Tributyl phosphate,,CCCCOP(=O)(OCCCC)OCCCC,STCOOQWBFONSKY-UHFFFAOYSA-N,-2.85
2-amino-3-[2-(2-amino-3-hydroxy-3-oxopropyl)sulfanylethylsulfanyl]propanoic acid,,NC(CSCCSCC(N)C(=O)O)C(=O)O,MJARHCRAWLXDKO-UHFFFAOYSA-N,-2.85
"2,4-hexadienedioic acid,",,OC(=O)\C=C/C=C\C(O)=O,TXXHDPDFNKHHGW-CCAGOZQPSA-N,-2.8516
3-methyl-4-propan-2-ylphenol,,CC(C)c1ccc(O)cc1C,IJALWSVNUBBQRA-UHFFFAOYSA-N,-2.854511354
"2-methyl-4,6-bis(methylsulfanyl)benzene-1,3-diamine; 4-methyl-2,6-bis(methylsulfanyl)benzene-1,3-diamine",,CSc1cc(SC)c(N)c(C)c1N,TXDBDYPHJXUHEO-UHFFFAOYSA-N,-2.856925458
nithiazide,,CCNC(=O)Nc1sc(cn1)[N+]([O-])=O,FQSUTLQHSDLLAN-UHFFFAOYSA-N,-2.8578
iprobenfos,,CC(C)O[P](=O)(OC(C)C)SCc1ccccc1,FCOAHACKGGIURQ-UHFFFAOYSA-N,-2.8579
"3,5-diiodotyrosine",,N[C@@H](Cc1cc(I)c(O)c(I)c1)C(O)=O,NYPYHUZRZVSYKL-ZETCQYMHSA-N,-2.8583
(phenylmethanesulfinylmethyl)benzene,,O=[S](Cc1ccccc1)Cc2ccccc2,HTMQZWFSTJVJEQ-UHFFFAOYSA-N,-2.858808721
"3,5-diiodotyrosine",,NC(CC1=CC(=C(O)C(=C1)I)I)C(O)=O,NYPYHUZRZVSYKL-UHFFFAOYSA-N,-2.86
RTI 2,,CCN2c1ncccc1N(CC)C(=O)c3cccnc23 ,ISMYLNZMKJLINI-UHFFFAOYSA-N,-2.86
triazamate,,CCOC(=O)CSc1nc(nn1C(=O)N(C)C)C(C)(C)C,NKNFWVNSBIXGLL-UHFFFAOYSA-N,-2.861
biphenyl-2-amine,,Nc1ccccc1c2ccccc2,TWBPWBPGNQWFSJ-UHFFFAOYSA-N,-2.861113735
"2-thiophenesulfonamide, 4-(4-hydroxybenzoyl)-",,N[S](=O)(=O)c1scc(c1)C(=O)c2ccc(O)cc2,OJXOXNIZNJIMLU-UHFFFAOYSA-N,-2.8612
methane,,C,VNWKTOKETHGBQD-UHFFFAOYSA-N,-2.8629
"acetamide, n-acetyl-2-(benzoyloxy)-n-methyl-",,CN(C(C)=O)C(=O)COC(=O)c1ccccc1,JQUIGGQYRQVIIE-UHFFFAOYSA-N,-2.8664
"acetamide, 2-(benzoyloxy)-n-(1,1-dimethylethyl)-",,CC(C)(C)NC(=O)COC(=O)c1ccccc1,NZNPHIKNHGRVLZ-UHFFFAOYSA-N,-2.8665
Metaxalone,CAS1665-48-1,Cc1cc(C)cc(OCC2CNC(=O)O2)c1,IMWZZHHPURKASS-UHFFFAOYSA-N,-2.87
"benzenesulfonamide, 4-amino-n-1,3,4-thiadiazol-2",,Nc1ccc(cc1)[S](=O)(=O)Nc2scnn2,ATEAASNFYTUARU-UHFFFAOYSA-N,-2.8684
boron(3+) ion phosphate,,O=[P]12OB(O1)O2,RKVCQBPDVHFKCU-UHFFFAOYSA-N,-2.869075736
Doxycycline,,CC3C2C(O)C1C(N(C)C)C(=C(C(N)=O)C(=O)C1(O)C(=C2C(=O)c4c(O)cccc34)O)O,JBIWCJUYHHGXTC-UHFFFAOYSA-N,-2.87
N-hydroxy-N-methyl-4-nitrobenzamide,,CN(C(=O)C1=CC=C(C=C1)[N+](=O)[O-])O,ZNDZIKKLULYHLG-UHFFFAOYSA-N,-2.87
3-methylbutyl propanoate,,CCC(=O)OCCC(C)C,XAOGXQMKWQFZEM-UHFFFAOYSA-N,-2.870073641
Tamoxifen,CAS10540-29-1,CC/C(=C(\c1ccccc1)c1ccc(OCCN(C)C)cc1)c1ccccc1,NKANXQFJJICGDU-QPLCGJKRSA-N,-2.87
"3,4,5-trichloro-2-methoxyphenol",,COc1c(O)cc(Cl)c(Cl)c1Cl,RKEHLKXRUVUBJN-UHFFFAOYSA-N,-2.8712
sucrose octaacetate,,CC(=O)OC[C@H]1O[C@H](O[C@]2(COC(C)=O)O[C@H](COC(C)=O)[C@@H](OC(C)=O)[C@@H]2OC(C)=O)[C@H](OC(C)=O)[C@@H](OC(C)=O)[C@@H]1OC(C)=O,ZIJKGAXBCRWEOL-SAXBRCJISA-N,-2.8726
"benzoic acid, 3-chloro-4-hydroxy-, methyl ester",,COC(=O)c1ccc(O)c(Cl)c1,ZSBIMTDWIGWJPW-UHFFFAOYSA-N,-2.873
azacyclohexadecan-2-one,,O=C1CCCCCCCCCCCCCCN1,NIMGTMNBWOVIHM-UHFFFAOYSA-N,-2.874
"5-thiazolecarboxylic acid, 2-[[(4-aminophenyl)su",,Nc1ccc(cc1)[S](=O)(=O)Nc2sc(cn2)C(O)=O,UVWBGXXTQBAIOZ-UHFFFAOYSA-N,-2.8741
"tris(prop-2-en-1-yloxy)-1,3,5-triazine",,C=CCOc1nc(OCC=C)nc(OCC=C)n1,BJELTSYBAHKXRW-UHFFFAOYSA-N,-2.87422578
pymetrozine,,CC1=NNC(=O)N(C1)\N=C\c2cccnc2,QHMTXANCGGJZRX-WUXMJOGZSA-N,-2.8745
5-chlorovanillin,,COc1cc(C=O)cc(Cl)c1O,ONIVKFDMLVBDRK-UHFFFAOYSA-N,-2.8747
"barbituric acid,5,5-dibutyl-",,CCCCC1(CCCC)C(=O)NC(=O)NC1=O,KXOZJFGEGGNJDX-UHFFFAOYSA-N,-2.8756
4-acetamidobenzene-1-sulfonyl chloride,,CC(=O)Nc1ccc(cc1)[S](Cl)(=O)=O,GRDXCFKBQWDAJH-UHFFFAOYSA-N,-2.877252416
di-i-propyl phthalate,,CC(C)OC(=O)c1ccccc1C(=O)OC(C)C,QWDBCIAVABMJPP-UHFFFAOYSA-N,-2.8773
triphenylphosphine oxide,,O=[P](c1ccccc1)(c2ccccc2)c3ccccc3,FIQMHBFVRAXMOP-UHFFFAOYSA-N,-2.877472795
"benzoic acid, 2-(methylamino)-",,CNc1ccccc1C(O)=O,WVMBPWMAQDVZCM-UHFFFAOYSA-N,-2.8784
1-[bis(4-fluorophenyl)methyl]piperazine,,Fc1ccc(cc1)C([NH+]2CC[NH2+]CC2)c3ccc(F)cc3,TTXIFFYPVGWLSE-UHFFFAOYSA-P,-2.878601076
2-naphthylamine,,Nc1ccc2ccccc2c1,JBIJLHTVPXGSAM-UHFFFAOYSA-N,-2.8795
4-[2-(4-hydroxyphenyl)propan-2-yl]phenol,,CC(C)(c1ccc(O)cc1)c2ccc(O)cc2,IISBACLAFKSPIT-UHFFFAOYSA-N,-2.879922295
chlordimeform,,CN(C)C=NC1=C(C)C=C(Cl)C=C1,STUSTWKEFDQFFZ-UHFFFAOYSA-N,-2.88
Chlortetracycline,,O=C(N)C(=C(O)C(N(C)C)C(C1(O)C(O)=C(C2C(O)(c(c3c(O)cc4)c4Cl)C)C3=O)C2)C1=O,CYDMQBQPVICBEU-UHFFFAOYSA-N,-2.88
"Ethyl (2-{[(4-aminophenyl)sulfonyl]amino}-4-methyl-1,3-thiazol-5-yl)acetate",,CCOC(=O)CC1=C(C)N=C(NS(=O)(=O)C2=CC=C(N)C=C2)S1,BCUDENMQYSKCLW-UHFFFAOYSA-N,-2.88
methyl (1-(4-methyl)phenylsulfonyl) cyclopropane,,COC(=O)C1(CC1)[S](=O)(=O)c2ccc(C)cc2,GQFAQGSQOWKLHH-UHFFFAOYSA-N,-2.8803
"1,6-bis[2-(2-butoxyethoxy)ethyl] hexanedioate",,CCCCOCCOCCOC(=O)CCCCC(=O)OCCOCCOCCCC,SCABKEBYDRTODC-UHFFFAOYSA-N,-2.882184886
6-amino-4-hydroxynaphthalene-2-sulfonic acid,,Nc1ccc2cc(cc(O)c2c1)[S](O)(=O)=O,HBZVNWNSRNTWPS-UHFFFAOYSA-N,-2.883311239
magnesium(2+) ion carbonate,,[Mg++].[O-]C([O-])=O,ZLNQQNXFFQJAID-UHFFFAOYSA-L,-2.884501857
"1,3,5-trinitrobenzene",,[O-][N+](=O)c1cc(cc(c1)[N+]([O-])=O)[N+]([O-])=O,UATJOMSPNYCXIX-UHFFFAOYSA-N,-2.8846
1-(naphthalen-1-yl)ethan-1-one,,CC(=O)c1cccc2ccccc12,QQLIGMASAVJVON-UHFFFAOYSA-N,-2.884634649
"2-benzofurancarboxylic acid, 3-methoxy-",,COc1c(oc2ccccc12)C(O)=O,MZOCFIBSONGMJF-UHFFFAOYSA-N,-2.8857
1-bromo-3-methylbutane,,CC(C)CCBr,YXZFFTJAHVMMLF-UHFFFAOYSA-N,-2.886
iodine,,II,PNDPGZBMCMUPRI-UHFFFAOYSA-N,-2.886
"l-cysteine, n-acetyl-s-(3,4-dichlorophenyl)-",,CC(=O)N[C@@H](CSc1ccc(Cl)c(Cl)c1)C(O)=O,JYWAYDDGOPHFIS-JTQLQIEISA-N,-2.8868
"1-cyclopentene-1-carboxylic acid, 2,3,3-trimethy",,CC1=C(CCC1(C)C)C(O)=O,CVPXQMUHAZMTEO-UHFFFAOYSA-N,-2.8871
hexafluoroprop-1-ene,,FC(F)=C(F)C(F)(F)F,HCDGVLDPFQMKDK-UHFFFAOYSA-N,-2.888798283
norazine,,CNc1nc(Cl)nc(NC(C)C)n1,KLJYRZOFJHYOCO-UHFFFAOYSA-N,-2.8896
"monuron;  3-(4-chlorophenyl)-1,1-dimethylurea;  telvar",,CN(C)C(=O)NC1=CC=C(Cl)C=C1,BMLIZLVNXIYGCK-UHFFFAOYSA-N,-2.89
"n-[3-(aziridin-1-yl)-4,6-dinitrobenzoyl]morpholine",,[O-][N+](=O)C1=C(C=C(C(=O)N2CCOCC2)C(=C1)[N+]([O-])=O)N3CC3,LUZNBBPGOHLPBY-UHFFFAOYSA-N,-2.89