Name,ID,SMILES,inchi,LogS
"3,4-Methylenedioxycinnamic acid",,O=C(O)C=CC1=CC2=C(C=C1)OCO2,QFQYZMGOKIROEC-UHFFFAOYSA-N,-3.19
nevirapine,,Cc3ccnc4N(C1CC1)c2ncccc2C(=O)Nc34 ,NQDJXKOVJZTUJA-UHFFFAOYSA-N,-3.19
"3-pyridinecarboxylic acid, decyl ester",,CCCCCCCCCCOC(=O)c1cccnc1,OVSJCKDIBDNMMK-UHFFFAOYSA-N,-3.1901
p-bromotoluene,,Cc1ccc(Br)cc1,ZBTMRBYMKUEVEU-UHFFFAOYSA-N,-3.1917
"1-naphthalenamine, n-ethyl-",,CCNc1cccc2ccccc12,KDFFXYVOTKKBDI-UHFFFAOYSA-N,-3.1922
2-phenylcinchoninic acid,,OC(=O)c1cc(nc2ccccc12)c3ccccc3,YTRMTPPVNRALON-UHFFFAOYSA-N,-3.1926
"2-furancarboxamide, n-hydroxy-n-phenyl-",,ON(C(=O)c1occc1)c2ccccc2,CCTHSALYFOIKCZ-UHFFFAOYSA-N,-3.194
ferimzone,,Cc1cc(C)nc(N\N=C(\C)c2ccccc2C)n1,GOWLARCWZRESHU-AQTBWJFISA-N,-3.1959
12-aminododecanoic acid,,[NH3+]CCCCCCCCCCCC([O-])=O,PBLZLIFKVPJDCO-UHFFFAOYSA-N,-3.196398091
"decanedioic acid, bis(2-ethoxyethyl) ester",,CCOCCOC(=O)CCCCCCCCC(=O)OCCOCC,UVRXDBUBNLXONB-UHFFFAOYSA-N,-3.1972
chromium(3+) ion trichloride,,[Cl-].[Cl-].[Cl-].[Cr+3],QSWDMMVNRMROPK-UHFFFAOYSA-K,-3.199631781
ferimzone,,CC1=CC(=NC(=N1)NN=C(C)C2=CC=CC=C2C)C,GOWLARCWZRESHU-UHFFFAOYSA-N,-3.2
itanoxone,,OC(=O)C(=C)CC(=O)C1=CC=C(C=C1)C2=CC=CC=C2Cl,HJWLWNLAIBFKDO-UHFFFAOYSA-N,-3.2
N-heptylpyridine-3-carboxamide,,CCCCCCCNC(=O)C1=CN=CC=C1,RHOBXEURCPVOGO-UHFFFAOYSA-N,-3.2
"Octanoic acid, ester with 1,2,3-propanetriol",,CCCCCCCC(O)=O.OCC(O)CO,SQABAALQCGKFFO-UHFFFAOYSA-N,-3.200000781
"1,2-dichloro-4-nitrobenzene",,[O-][N+](=O)c1ccc(Cl)c(Cl)c1,NTBYINQTYWZXLH-UHFFFAOYSA-N,-3.20051812
"benzene, 1-bromo-2-chloro-",,Clc1ccccc1Br,QBELEDRHMPMKHP-UHFFFAOYSA-N,-3.203
3-iodoprop-2-yn-1-yl N-butylcarbamate,,CCCCNC(=O)OCC#CI,WYVVKGNFXHOCQV-UHFFFAOYSA-N,-3.203337363
"1,2,3-trimethylbenzene",,Cc1cccc(C)c1C,FYGHSUNMUKGBRK-UHFFFAOYSA-N,-3.2037
Fluocortolone,,C[C@@H]1C[C@H]2[C@@H]3C[C@H](F)C4=CC(=O)C=C[C@]4(C)[C@H]3[C@@H](O)C[C@]2(C)[C@H]1C(=O)CO,GAKMQHDJQHZUTJ-ULHLPKEOSA-N,-3.203737155
Clobazam,CAS22316-47-8,CN1C(=O)CC(=O)N(c2ccccc2)c2cc(Cl)ccc21,CXOXHMZGEKVPMT-UHFFFAOYSA-N,-3.2
2-methoxy-4-nitroaniline,,COc1cc(ccc1N)[N+]([O-])=O,GVBHRNIWBGTNQA-UHFFFAOYSA-N,-3.204512738
"N-[3-(8-methylnonoxy)propyl]propane-1,3-diamine",,CC(C)CCCCCCCOCCCNCCCN,LMVFSACRPDMFSQ-UHFFFAOYSA-N,-3.204880928
"2,4(1h,3h)-quinazolinedione, 6,8-dinitro-",,[O-][N+](=O)c1cc2C(=O)NC(=O)Nc2c(c1)[N+]([O-])=O,COWHVSLHGUONGN-UHFFFAOYSA-N,-3.2057
"7-nitro-2,2-dimethyl-2,3-dihydrobenzofuran",,CC1(C)Cc2cccc(c2O1)[N+]([O-])=O,ZQZNLPNVEXRNNG-UHFFFAOYSA-N,-3.2068
1-chloro-2-(chloromethyl)benzene,,ClCc1ccccc1Cl,BASMANVIUSSIIM-UHFFFAOYSA-N,-3.20690949
1-ethyl-2-methylbenzene,,CCc1ccccc1C,HYFLWBNQFMXCPA-UHFFFAOYSA-N,-3.2072
,CHEMBL2335882,COCCN(C)Cc1ccc(Nc2ncc3cc(ccc3n2)c4ccncc4)cc1,ZNKBTWMPGNYFEX-UHFFFAOYSA-N,-3.207299361
"3-pyridinecarboxamide, n-dodecyl-",,CCCCCCCCCCCCNC(=O)c1cccnc1,XVQJYCJZQVBVTL-UHFFFAOYSA-N,-3.2078
Natamycin,,O1C(C)C(O)C(N)C(O)C1OC2C=CC=CC=CC=CCC(C)OC(=O)C=CC(O3)C3CC(O)CC4(O)OC(C(C(=O)O)C(O)C4)C2,NCXMLFZGDNKEPB-UHFFFAOYSA-N,-3.21
"6,7-Dimethoxy-4-nitro-2-benzofuran-1(3H)-one",,COc1cc(c2COC(=O)c2c1OC)[N+]([O-])=O,ZPEFPSJMGSVLKW-UHFFFAOYSA-N,-3.21
N-hydroxy-2-(pyridin-2-ylmethylideneamino)benzamide,,O=C(NO)C1=C(N=CC2=CC=CC=N2)C=CC=C1,UHZUKUTVMBPNLC-UHFFFAOYSA-N,-3.21
m-bromochlorobenzene,,Clc1cccc(Br)c1,JRGGUPZKKTVKOV-UHFFFAOYSA-N,-3.2102
"5-bromo-1,2,3-trifluorobenzene",,Fc1cc(Br)cc(F)c1F,HKJCELUUIFFSIN-UHFFFAOYSA-N,-3.210297936
"1(3h)-isobenzofuranone, 6-iodo-",,Ic1ccc2COC(=O)c2c1,GDWUNKJJSAKJSC-UHFFFAOYSA-N,-3.2109
"benzenamine, 2-ethoxy-5-nitro-",,CCOc1ccc(cc1N)[N+]([O-])=O,AMMPGYPPRLWMLW-UHFFFAOYSA-N,-3.2113
Risperidone,CAS106266-06-2,Cc1nc2n(c(=O)c1CCN1CCC(c3noc4cc(F)ccc34)CC1)CCCC2,RAPZEAPATHNIPO-UHFFFAOYSA-N,-3.22
pyrimethanil,,Cc1cc(C)nc(Nc2ccccc2)n1,ZLIBICFPKPWGIZ-UHFFFAOYSA-N,-3.2166
niridazole,,[O-][N+](=O)c1sc(nc1)N2CCNC2=O,RDXLYGJSWZYTFJ-UHFFFAOYSA-N,-3.2169
imazalil base,,Clc1ccc(C(Cn2ccnc2)OCC=C)c(Cl)c1,PZBPKYOVPCNPJY-UHFFFAOYSA-N,-3.2178
"ethane, 1,2-diiodo-",,ICCI,GBBZLMLLFVFKJM-UHFFFAOYSA-N,-3.2196
bupivacaine,,CCCCN1CCCCC1C(=O)NC2=C(C)C=CC=C2C,LEBVLXFERQHONN-UHFFFAOYSA-N,-3.22
phenyl  5-fluorouracil-3-carboxylate;  3-phenyloxycarbonyl-5-fluorouracil,,FC1=CNC(=O)N(C(=O)OC2=CC=CC=C2)C1=O,OKVXWLFRHOXZPA-UHFFFAOYSA-N,-3.22
"(e)-1,2-diiodoethene;  1,2-diiodoethylene (trans)",,I\C=C\I,CVOGMKGEVNGRSK-OWOJBTEDSA-N,-3.22
"1,2-diiodoethylene",,IC=CI,CVOGMKGEVNGRSK-UHFFFAOYSA-N,-3.22
3-hydroxy-2-methyl-1-(4-methylphenyl)pyridin-4-one,,CC1=CC=C(N2C=CC(=O)C(O)=C2C)C=C1,YKWMYPVOGWWSKR-UHFFFAOYSA-N,-3.22
"9-hydroxyfuro[3,2-g]chromen-7-one",,O=C1C=CC2=C(O1)C(O)=C1OC=CC1=C2,JWVYQQGERKEAHW-UHFFFAOYSA-N,-3.22
N-Acetyl-O-benzoylserine,,CC(=O)NC(COC(=O)C1=CC=CC=C1)C(=O)O,RXFPBLZANMSMKQ-UHFFFAOYSA-N,-3.22
"N-(3-bromophenyl)-7-(methoxymethyl)-7,8-dihydro-[1,4]dioxino[3,2-g]quinazolin-4-amine",,COCC1COC2=C(C=C3C(=C2)N=CN=C3NC2=CC(Br)=CC=C2)O1,UFQCLRMJHOWNLX-UHFFFAOYSA-N,-3.22
isophthalic acid,,OC(=O)c1cccc(c1)C(O)=O,QQVIHTHCMHWDBS-UHFFFAOYSA-N,-3.2204
"1,2-bis(prop-2-en-1-yl) benzene-1,2-dicarboxylate",,C=CCOC(=O)c1ccccc1C(=O)OCC=C,QUDWYFHPNIMBFC-UHFFFAOYSA-N,-3.221135687
,CHEMBL2414331,COc1ccn2cc(nc2c1C(=O)N)c3cccc(c3)c4cncc(O[C@H]5CCOC5)c4,NNGALNNNCIJMGT-SFHVURJKSA-N,-3.221550116
"1,2-hexanediol, 2-butyl-1phenyl-",,CCCCC(O)(CCCC)C(O)c1ccccc1,MGJOTHOXCFYBTC-UHFFFAOYSA-N,-3.2225
1-lauryl-4-carboxy-2-pyrrolodone,,CCCCCCCCCCCCN1CC(CC1=O)C(O)=O,ZNQTZHTYSHEJLH-UHFFFAOYSA-N,-3.223
diphenylacetic acid,,OC(=O)C(c1ccccc1)c2ccccc2,PYHXGXCGESYPCW-UHFFFAOYSA-N,-3.223039886
"benzoic acid, 3-chloro-4-hydroxy-, ethyl ester",,CCOC(=O)c1ccc(O)c(Cl)c1,QBOWIPYEPOVPGR-UHFFFAOYSA-N,-3.2232
Carbaryl,,CNC(=O)Oc1cccc2ccccc12,CVXBEEMKQHEXEN-UHFFFAOYSA-N,-3.224
4-amino-5-chloro-N-[2-(diethylamino)ethyl]-2-methoxybenzamide,,[H+].[Cl-].CCN(CC)CCNC(=O)c1cc(Cl)c(N)cc1OC,RVFUNJWWXKCWNS-UHFFFAOYSA-N,-3.225649088
1-hexene,,CCCCC=C,LIKMAJRDDDTEIG-UHFFFAOYSA-N,-3.2261
hexene - mixture of isomers,,CCC\C=C\C,RYPKRALMXUUNKS-HWKANZROSA-N,-3.2262
,CHEMBL1631016,C[C@H](Oc1ccc(cc1C(=O)N2Cc3cccc(C#N)c3C2)S(=O)(=O)C)C(F)(F)F,KZTUEUOKPCKYBS-LBPRGKRZSA-N,-3.228259722
"phenol, 2-phenoxy-",,Oc1ccccc1Oc2ccccc2,KDTZBYPBMTXCSO-UHFFFAOYSA-N,-3.2286
"2-(1,3-benzothiazol-2-ylsulfanyl)acetic acid",,OC(=O)CSc1sc2ccccc2n1,ZZUQWNYNSKJLPI-UHFFFAOYSA-N,-3.228897985
"1,3,5-triazin-2(1h)-one, 4,6-diamino-",,NC1=NC(=O)N=C(N)N1,MASBWURJQFFLOO-UHFFFAOYSA-N,-3.2291
Levobupivacaine,CAS27262-47-1,CCCCN1CCCC[C@H]1C(=O)Nc1c(C)cccc1C.Cl,SIEYLFHKZGLBNX-NTISSMGPSA-N,-3.23
"2-(2,4,6-trichlorophenoxy)acetic acid",,O=C(O)COC1=C(Cl)C=C(Cl)C=C1Cl,KZDCLQBOHGBWOI-UHFFFAOYSA-N,-3.23
2-(methyl-(phenylmethylsulfanylcarbothioyl)amino)acetic acid,,CN(CC(=O)O)C(=S)SCC1=CC=CC=C1,XRJDITBTRULNOY-UHFFFAOYSA-N,-3.23
"1,1,2,2,-tetrachlorodifluoroethane",,FC(Cl)(Cl)C(F)(Cl)Cl,UGCSPKPEHQEOSR-UHFFFAOYSA-N,-3.2301
isopropyl (1-(4-methyl)phenylsulfonyl) cycloprop,,CC(C)OC(=O)C1(CC1)[S](=O)(=O)c2ccc(C)cc2,RHDLXXXPRNASTE-UHFFFAOYSA-N,-3.2307
"2,2-dimethyl-4-phenylpentanenitrile",,CC(CC(C)(C)C#N)c1ccccc1,GWCCFAFCQHECBM-UHFFFAOYSA-N,-3.235078816
"cobalt(3+) ion 9-(2-carboxyphenyl)-6-(diethylamino)-N,N-diethyl-3H-xanthen-3-iminium bis(3-methyl-4-[(E)-2-(2-oxido-5-{[3-(propan-2-yloxy)propyl]sulfamoyl}phenyl)diazen-1-yl]-1-phenyl-1H-pyrazol-5-olate)",,[Co+3].CCN(CC)c1ccc2c(c1)[o+]c3cc(ccc3c2c4ccccc4C(O)=O)N(CC)CC.CC(C)OCCCN[S](=O)(=O)c5ccc([O-])c(c5)N=Nc6c(C)nn(c6[O-])c7ccccc7.CC(C)OCCCN[S](=O)(=O)c8ccc([O-])c(c8)N=Nc9c(C)nn(c9[O-])c%10ccccc%10,WUVJFYRTCZOXAH-UHFFFAOYSA-K,-3.235762244
,CHEMBL1631017,C[C@H](Oc1ccc(cc1C(=O)N2Cc3cc(cnc3C2)C(F)(F)F)S(=O)(=O)C)C(F)(F)F,DSFRGIKAQFSVOE-JTQLQIEISA-N,-3.235955225
mefluidide,,CC(=O)Nc1cc(N[S](=O)(=O)C(F)(F)F)c(C)cc1C,OKIBNKKYNPBDRS-UHFFFAOYSA-N,-3.2365
triethylene glycol bis(2-ethylbutyrate),,CCC(CC)C(=O)OCCOCCOCCOC(=O)C(CC)CC,JEYLQCXBYFQJRO-UHFFFAOYSA-N,-3.2386
terbumeton,,CCNc1nc(NC(C)(C)C)nc(OC)n1,BCQMBFHBDZVHKU-UHFFFAOYSA-N,-3.2388
corticosterone,,CC12CC(O)C3C(CCC4=CC(=O)CCC34C)C1CCC2C(=O)CO,OMFXVFTZEKFJBZ-UHFFFAOYSA-N,-3.24
corticosterone,,C[C@]12C[C@H](O)[C@H]3[C@@H](CCC4=CC(=O)CC[C@]34C)[C@@H]1CC[C@@H]2C(=O)CO,OMFXVFTZEKFJBZ-HJTSIMOOSA-N,-3.2408
"2,4-pentanediol, 2-methyl-4-(1-naphthalenyl)-",,CC(C)(O)CC(C)(O)c1cccc2ccccc12,VIDCUYMAESSAFM-UHFFFAOYSA-N,-3.2419
"2,4,6-trinitrotoluene",,Cc1c(cc(cc1[N+]([O-])=O)[N+]([O-])=O)[N+]([O-])=O,SPSSULHKWOKEEL-UHFFFAOYSA-N,-3.2423
"4-imidazolidinone, 3-phenyl-2-thioxo-",,O=C1CNC(=S)N1c2ccccc2,ZZRIQDWDJVLELF-UHFFFAOYSA-N,-3.2425
"3,7-dimethyloct-6-enal",,C[C@H](CCC=C(C)C)CC=O,NEHNMFOYXAPHSD-SNVBAGLBSA-N,-3.243750947
4-methyl-1-pentene,,CC(C)CC=C,WSSSPWUEQFSQQG-UHFFFAOYSA-N,-3.2439
"2-ethyl-2-methyl-1,3-dihydroperimidine",,CCC1(C)Nc2cccc3cccc(N1)c23,QOYINWMUFFDLBI-UHFFFAOYSA-N,-3.247760565
3-isothiocyanatobenzoic acid,,OC(=O)C1=CC(=CC=C1)N=C=S,PJRBPKOOGLKPFB-UHFFFAOYSA-N,-3.25
2-acetoxybenzoic acid diisopropylcarbamoylmethyl ester,,CC(C)N(C(C)C)C(=O)COC(=O)C1=CC=CC=C1OC(C)=O,WRGWFXXPBRCSIH-UHFFFAOYSA-N,-3.25
4-iodoacetanilide,,O=C(Nc(ccc(c1)I)c1)C,SIULLDWIXYYVCU-UHFFFAOYSA-N,-3.25
5-bromo-3-hydroxybenzaldehyde,,Oc1cc(Br)cc(C=O)c1,XVFGERBEZKEGSS-UHFFFAOYSA-N,-3.2502
"(2,4-dimethylcyclohex-3-en-1-yl)methyl acetate",,CC1C=C(C)CCC1COC(C)=O,LICUDMOFXVHDPB-UHFFFAOYSA-N,-3.250398558
"5-[(5-sulfanylidene-4,5-dihydro-1,3,4-thiadiazol-2-yl)disulfanyl]-2,3-dihydro-1,3,4-thiadiazole-2-thione",,S=C1NN=C(SSC2=NNC(=S)S2)S1,DJCISYVIXPWVHY-UHFFFAOYSA-N,-3.252213315
Benzo[cd]indol-2(1H)-one,,O=C1Nc2cccc3cccc1c23,GPYLCFQEKPUWLD-UHFFFAOYSA-N,-3.254767098
"ethyl 5-oxo-1-phenyl-4,5-dihydro-1H-pyrazole-3-carboxylate",,CCOC(=O)C1=NN(C(=O)C1)c2ccccc2,WBFXQKNQVZMOSQ-UHFFFAOYSA-N,-3.255345443
(3-isocyanatopropyl)trimethoxysilane,,CO[Si](CCCN=C=O)(OC)OC,FMGBDYLOANULLW-UHFFFAOYSA-N,-3.256981001
"(3E)-4-(2,6,6-trimethylcyclohex-2-en-1-yl)but-3-en-2-one",,CC(=O)/C=C/C1C(=CCCC1(C)C)C,UZFLPKAIBPNNCA-BQYQJAHWSA-N,-3.258677936
,CHEMBL2335880,O=C(NCCN1CCCC1)c2ccc(Nc3ncc4cc(ccc4n3)c5ccncc5)cc2,LTZRVNRMZXWRRI-UHFFFAOYSA-N,-3.259336938
"4,4'-disulfanediyldimorpholine",,C1CN(CCO1)SSN2CCOCC2,HLBZWYXLQJQBKU-UHFFFAOYSA-N,-3.259634304
"n-[2-(benzoyloxy)acetyl]-2,6-dimethylpiperidine",,CC1CCCC(C)N1C(=O)COC(=O)C2=CC=CC=C2,WJUSVIUZCYELMK-UHFFFAOYSA-N,-3.26
"5-(benzoyl)-2,3-dihydro-1H-pyrrolizine-1-carboxylic acid",,O=C(C1=CC=CC=C1)C1=CC=C2C(C(=O)O)CCN12,OZWKMVRBQXNZKK-UHFFFAOYSA-N,-3.26
potassium hexadecyl hydrogen phosphate,,[K+].CCCCCCCCCCCCCCCCO[P](O)([O-])=O,RMGVATURDVPNOZ-UHFFFAOYSA-M,-3.260259354
"1,2-dino2 4-methyl benzene",,Cc1ccc(c(c1)[N+]([O-])=O)[N+]([O-])=O,INYDMNPNDHRJQJ-UHFFFAOYSA-N,-3.2604
iron(3+) phosphate,,[Fe+3].[O-][P]([O-])([O-])=O,WBJZTOZJJYAKHQ-UHFFFAOYSA-K,-3.261464491
"benzoic acid, 2- bis(4-hydroxyphenyl)methyl -",,Oc1ccc(cc1)C(c2ccc(O)cc2)c3ccccc3C(O)=O,FFFPYJTVNSSLBQ-UHFFFAOYSA-N,-3.2626
"dipropyl cyclohexane-1,2-dicarboxylate",,CCCOC(=O)C1CCCCC1C(=O)OCCC,AGEFUZCBLJQXIA-UHFFFAOYSA-N,-3.262691733
4-(4-amino-3-chlorophenyl)-2-chloroaniline dihydrochloride,,[H+].[H+].[Cl-].[Cl-].Nc1ccc(cc1Cl)c2ccc(N)c(Cl)c2,BXAONUZFBUNTQR-UHFFFAOYSA-N,-3.26286953
Glibornuride,CAS26944-48-9,Cc1ccc(S(=O)(=O)NC(=O)N[C@H]2[C@H]3CC[C@@](C)([C@H]2O)C3(C)C)cc1,RMTYNAPTNBJHQI-LLDVTBCESA-N,-3.26
"chloramben, methyl ester",,COC(=O)c1cc(Cl)cc(N)c1Cl,DTSSCQVCVYZGSI-UHFFFAOYSA-N,-3.2634
"1-(2,4-dichlorophenyl)-2-(1H-imidazol-1-yl)ethan-1-ol",,OC(Cn1ccnc1)c2ccc(Cl)cc2Cl,UKVLTPAGJIYSGN-UHFFFAOYSA-N,-3.264007824
"disodium 4,5-dichloro-2-[(E)-2-[3-methyl-5-oxo-1-(3-sulfonatophenyl)-4,5-dihydro-1H-pyrazol-4-yl]diazen-1-yl]benzene-1-sulfonate",,[Na+].[Na+].CC1=NN(c2cccc(c2)[S]([O-])(=O)=O)C(=O)C1N=Nc3cc(Cl)c(Cl)cc3[S]([O-])(=O)=O,NPHMJNPFGARTFL-UHFFFAOYSA-L,-3.264264374
"1,1,2,3,3-pentamethyl-2,3,4,5,6,7-hexahydro-1H-inden-4-one",,CC1C(C)(C)C2=C(C(=O)CCC2)C1(C)C,MIZGSAALSYARKU-UHFFFAOYSA-N,-3.265342251
sodium hydroxysilanoylolate,,O.O.O.O.O.[Na+].[Na+].[O-][Si]([O-])=O,ADPGKKZKGXANON-UHFFFAOYSA-N,-3.26592063
1-methylcyclohexene,,CC1=CCCCC1,CTMHWPIWNRWQEG-UHFFFAOYSA-N,-3.2671
"2,4-pteridinediamine, 6,7-diethyl-",,CCc1nc2nc(N)nc(N)c2nc1CC,BUZKILZDXOORCH-UHFFFAOYSA-N,-3.2671
kebuzone,,CC(=O)CCC1C(=O)N(N(C1=O)c2ccccc2)c3ccccc3,LGYTZKPVOAIUKX-UHFFFAOYSA-N,-3.2676
"1,2-dichloro-4-(trifluoromethyl)benzene",,FC(F)(F)c1ccc(Cl)c(Cl)c1,XILPLWOGHPSJBK-UHFFFAOYSA-N,-3.267982491
Cefpodoxime Proxetil,CAS87239-81-4,COCC1=C(C(=O)OC(C)OC(=O)OC(C)C)N2C(=O)[C@@H](NC(=O)/C(=N\OC)c3csc(N)n3)[C@H]2SC1,LTINZAODLRIQIX-FBXRGJNPSA-N,-3.27
Trazodone,CAS19794-93-5,Cl.O=c1n(CCCN2CCN(c3cccc(Cl)c3)CC2)nc2ccccn12,OHHDIOKRWWOXMT-UHFFFAOYSA-N,-3.27
Bromazepam,CAS1812-30-2,O=C1CN=C(c2ccccn2)c2cc(Br)ccc2N1,VMIYHDSEFNYJSL-UHFFFAOYSA-N,-3.27
6-aminonaphthalene-2-sulfonic acid,,Nc1ccc2cc(ccc2c1)[S](O)(=O)=O,SEMRCUIXRUXGJX-UHFFFAOYSA-N,-3.269616058
1-butanoylallopurinol,,CCCC(=O)[N]1N=CC2=C1N=CNC2=O,ABLLZVRKYUXMHV-UHFFFAOYSA-N,-3.27
naepaine,,c1cc(N)ccc1C(=O)OCCNCCCCC,UYXHCVFXDBNRQW-UHFFFAOYSA-N,-3.27
"2,3-dimethylpentane; 2-methylpentane; 3-methylhexane; 3-methylpentane",,CCCC(C)C.CCCC(C)CC.CCC(C)CC.CCC(C)C(C)C,KFBRQWHEGZEJKU-UHFFFAOYSA-N,-3.270406298
3-iodobenzoic acid,,OC(=O)c1cccc(I)c1,KVBWBCRPWVKFQT-UHFFFAOYSA-N,-3.2706
1-chloro-2-methyl-3-nitrobenzene,,Cc1c(Cl)cccc1[N+]([O-])=O,XCSNRORTQRKCHB-UHFFFAOYSA-N,-3.27068643
2-methylpropyl 2-phenylacetate,,CC(C)COC(=O)Cc1ccccc1,RJASFPFZACBKBE-UHFFFAOYSA-N,-3.271047196
Bevantolol,CAS59170-23-9,COc1ccc(CCNCC(O)COc2cccc(C)c2)cc1OC,HXLAFSUPPDYFEO-UHFFFAOYSA-N,-3.27
"5-nitro-1,3-dihydro-2H-benzimidazol-2-one",,[O-][N+](=O)c1ccc2NC(=O)Nc2c1,DLJZIPVEVJOKHB-UHFFFAOYSA-N,-3.274087547
o-diethylbenzene,,CCc1ccccc1CC,KVNYFPKFSJIPBJ-UHFFFAOYSA-N,-3.2759
"2,4,6-trichloro-3-methylphenol",,Cc1c(Cl)cc(Cl)c(O)c1Cl,QTAATZDGGZYBDC-UHFFFAOYSA-N,-3.2761
Fosamprenavir Calcium,CAS226700-81-8,CC(C)CN(C[C@@H](OP(=O)([O-])[O-])[C@H](Cc1ccccc1)NC(=O)O[C@H]1CCOC1)S(=O)(=O)c1ccc(N)cc1.[Ca+2],PMDQGYMGQKTCSX-HQROKSDRSA-L,-3.28
6-hydroxy-2-naphthoic acid,,OC(=O)c1ccc2cc(O)ccc2c1,KAUQJMHLAFIZDU-UHFFFAOYSA-N,-3.278942885
"4-(4-bromo-2-fluorophenylamino)-1,5-dimethyl-6-oxo-1,6-dihydropyridine-3-carboxylic acid methoxyamide",,CONC(=O)C1=CN(C)C(=O)C(=C1NC2=CC=C(Br)C=C2F)C,FFWCBXXLTJLUOY-UHFFFAOYSA-N,-3.28
"N,N-dibromobenzenesulfonamide",,O=S(=O)(C1=CC=CC=C1)N(Br)Br,OTVPURYEWXIAKH-UHFFFAOYSA-N,-3.28
2-(thiocyanatemethylthio)benzothiazole,,N#CSCSc1sc2ccccc2n1,TUBQDCKAWGHZPF-UHFFFAOYSA-N,-3.2803
"decanedioic acid, dimethyl ester",,COC(=O)CCCCCCCCC(=O)OC,ALOUNLDAKADEEB-UHFFFAOYSA-N,-3.2831
tetracycline,,CN(C)[C@H]1[C@@H]2C[C@H]3C(=C(O)c4c(O)cccc4[C@@]3(C)O)C(=O)[C@]2(O)C(=O)\C(=C(N)/O)C1=O,JYHCQVWYCGHXGP-BPPSBWQWSA-N,-3.284
(2S)-2-{[(benzyloxy)carbonyl]amino}-2-cyclohexylacetic acid,,OC(=O)[C@@H](NC(=O)OCc1ccccc1)C2CCCCC2,CUSYTUPJAYLNFQ-AWEZNQCLSA-N,-3.285433603
ofurace,,Cc1cccc(C)c1N(C2CCOC2=O)C(=O)CCl,OWDLFBLNMPCXSD-UHFFFAOYSA-N,-3.2855
quinethazone,,CCC1NC(=O)c2cc(c(Cl)cc2N1)[S](N)(=O)=O,AGMMTXLNIQSRCG-UHFFFAOYSA-N,-3.2859
3-(3-ethylcyclopentyl)propanoic acid,,CCC1CCC(CCC(O)=O)C1,WVRFSLWCFASCIS-UHFFFAOYSA-N,-3.286116314
2-ethylhexyl cyanoacetate,,CCCCC(CC)COC(=O)CC#N,ZNYBQVBNSXLZNI-UHFFFAOYSA-N,-3.286478485
o-thymotic acid,,CC(C)c1ccc(C)c(C(O)=O)c1O,FNWNGQGTFICQJU-UHFFFAOYSA-N,-3.2883
"benzeneacetonitrile, alpha-((cyanomethoxy)imino)",,N#CCO/N=C(C#N)/c1ccccc1,PYKLUAIDKVVEOS-JLHYYAGUSA-N,-3.2899
naproxen,,COC1=CC=C2C=C(C=CC2=C1)C(C)C(O)=O,CMWTZPSULFXXJA-UHFFFAOYSA-N,-3.29
4-(4-chlorophenoxy)butyric acid;  4-(4-chlorophenoxy)butanoic acid,,OC(=O)CCCOC1=CC=C(Cl)C=C1,SIYAHZSHQIPQLY-UHFFFAOYSA-N,-3.29
propyl  4-acetylaminobenzoate;  4-acetylaminobenzoic acid propyl ester,,CCCOC(=O)C1=CC=C(NC(C)=O)C=C1,TZBHZUCUDXQCSI-UHFFFAOYSA-N,-3.29
n-cyclohexyl-n-methyl-2-(benzoyloxy)acetamide,,CN(C1CCCCC1)C(=O)COC(=O)C2=CC=CC=C2,PDIJPBODFJXKMS-UHFFFAOYSA-N,-3.29
3-octanoyloxymethyl-5-fluorouracil,,CCCCCCCC(=O)OCN1C(=O)NC=C(F)C1=O,PEGCWSPKBALNEQ-UHFFFAOYSA-N,-3.29
1-[4-[2-(diaminomethylidene)hydrazinyl]naphthalen-1-yl]iminoguanidine,,N=C(N)NN=C1C=CC(=NNC(=N)N)C2=C1C=CC=C2,PHFIHDKUVGCCEG-UHFFFAOYSA-N,-3.29
4-[(morpholin-4-ylcarbonothioyl)sulfanyl]morpholine,,S=C(SN1CCOCC1)N2CCOCC2,HOEFWOBLOGZQIQ-UHFFFAOYSA-N,-3.291300662
carbon monoxide; iron,,[Fe].[C-]#[O+].[C-]#[O+].[C-]#[O+].[C-]#[O+].[C-]#[O+],FYOFOKCECDGJBF-UHFFFAOYSA-N,-3.292023351
cumene,,CC(C)c1ccccc1,RWGFKTVRMDUZSP-UHFFFAOYSA-N,-3.2924
n-benzyl-3-chloropropanamide,,ClCCC(=O)NCc1ccccc1,JPYQFYIEOUVJDU-UHFFFAOYSA-N,-3.2959
5-Chlorothiophene-2-sulfonamide,,N[S](=O)(=O)c1sc(Cl)cc1,RKLQLYBJAZBSEU-UHFFFAOYSA-N,-3.295936368
4-(1-methoxy-1-methylethyl)-1-methylcyclohexene,,COC(C)(C)C1CCC(=CC1)C,YWJHQHJWHJRTAB-UHFFFAOYSA-N,-3.296613578
"6,10-dimethylundeca-3,5,9-trien-2-one",,CC(C)=CCC\C(C)=C\C=C\C(C)=O,JXJIQCXXJGRKRJ-KOOBJXAQSA-N,-3.297212067
nonanonitrile,,CCCCCCCCC#N,PLZZPPHAMDJOSR-UHFFFAOYSA-N,-3.2987
sulcotrione,,C[S](=O)(=O)c1ccc(c(Cl)c1)C(=O)C2C(=O)CCCC2=O,PQTBTIFWAXVEPB-UHFFFAOYSA-N,-3.2994
3-(2-aminoethyl)indole;  tryptamine,,NCCC1=C[NH]C2=C1C=CC=C2,APJYDQYYACXCRM-UHFFFAOYSA-N,-3.3
3-(hydroxymethyl)phenytoin,,OCN1C(=O)NC(C1=O)(C2=CC=CC=C2)C3=CC=CC=C3,QQBKLRXLVRDKEB-UHFFFAOYSA-N,-3.3
n-Octyl_Carbamate,,CCCCCCCCOC(=O)N,YPNZTHVEMNUDND-UHFFFAOYSA-N,-3.3
Vernolate  ,,CCCSC(=O)N(CCC)CCC,OKUGPJPKMAEJOE-UHFFFAOYSA-N,-3.3
TIANEPTINE,CHEMBL1289110,CN1c2ccccc2C(NCCCCCCC(=O)O)c3ccc(Cl)cc3S1(=O)=O,JICJBGPOMZQUBB-UHFFFAOYSA-N,-3.300206601
ANIRACETAM,CHEMBL36994,COc1ccc(cc1)C(=O)N2CCCC2=O,ZXNRTKGTQJPIJK-UHFFFAOYSA-N,-3.300731852
DEXFENFLURAMINE,CHEMBL248702,CCN[C@@H](C)Cc1cccc(c1)C(F)(F)F,DBGIVFWFUFKIQN-VIFPVBQESA-N,-3.30077355
"2-naphthol, 3-(2-imidazolin-2-yl)-",,Oc1cc2ccccc2cc1C3=NCCN3,FLXNNWWFGVHTDN-UHFFFAOYSA-N,-3.3015
1-napthoic acid,,OC(=O)c1cccc2ccccc12,LNETULKMXZVUST-UHFFFAOYSA-N,-3.3015
Naproxen,CAS22204-53-1,COc1ccc2cc([C@H](C)C(=O)O)ccc2c1,CMWTZPSULFXXJA-VIFPVBQESA-N,-3.3
"propanedioic acid, nonyl-",,CCCCCCCCCC(C(O)=O)C(O)=O,FWQNYUYRXNWOOM-UHFFFAOYSA-N,-3.3016
dec-4-enal,,CCCCC/C=C/CCC=O,CWRKZMLUDFBPAO-VOTSOKGWSA-N,-3.301742894
tridecan-1-ol,,CCCCCCCCCCCCCO,XFRVVPUIAFSTFO-UHFFFAOYSA-N,-3.301824028
methylcyclopentane,,CC1CCCC1,GDOPTJXRTPNYNR-UHFFFAOYSA-N,-3.3019
3-[4-(propan-2-yl)phenyl]propanal,,CC(C)c1ccc(CCC=O)cc1,RLEFOSDUWZYGOS-UHFFFAOYSA-N,-3.302656786
fenfuram,,Cc1occc1C(=O)Nc2ccccc2,JFSPBVWPKOEZCB-UHFFFAOYSA-N,-3.3037
"naphtho[1,2-c]furan-1(3h)-one",,O=C1OCc2ccc3ccccc3c12,ARSOXHMEZHBPOS-UHFFFAOYSA-N,-3.3062
"benzamide, n-hydroxy-n-1-naphthalenyl-",,ON(C(=O)c1ccccc1)c2cccc3ccccc23,PZBPQFNCQFUIOP-UHFFFAOYSA-N,-3.3065
"3,5-diiodosalicylic acid",,OC(=O)c1cc(I)cc(I)c1O,DHZVWQPHNWDCFS-UHFFFAOYSA-N,-3.307
"benzenesulfonamide, 4-amino-n-(5-propyl-1,3,4-th",,CCCc1sc(N[S](=O)(=O)c2ccc(N)cc2)nn1,UAFUDNOKRZAGCJ-UHFFFAOYSA-N,-3.3075
2-decanone,,CCCCCCCCC(C)=O,ZAJNGDIORYACQU-UHFFFAOYSA-N,-3.3085
methyl (1-(4-chloro)phenylsulfonyl) cyclopropane,,COC(=O)C1(CC1)[S](=O)(=O)c2ccc(Cl)cc2,MKKNYRRAGXWBDZ-UHFFFAOYSA-N,-3.3086
"benzene, 1,2-dichloro-3-methoxy-",,COc1cccc(Cl)c1Cl,HFEASCCDHUVYKU-UHFFFAOYSA-N,-3.309
"1,1,1,2-tetrachloro-2,2-difluoroethane",,FC(F)(Cl)C(Cl)(Cl)Cl,SLGOCMATMKJJCE-UHFFFAOYSA-N,-3.3093
myclobutanil,,CCCCC(C[N]1C=NC=N1)(C#N)C2=CC=C(Cl)C=C2,HZJKXKUJVSEEFU-UHFFFAOYSA-N,-3.31
(z)-pyriminobac-methyl,,CO\N=C(C)/C1=CC=CC(=C1C(=O)OC)OC2=NC(=CC(=N2)OC)OC,USSIUIGPBLPCDF-JMIUGGIZSA-N,-3.31
etodolac,,CCC1=CC=CC2=C1[NH]C3=C2CCOC3(CC)CC(O)=O,NNYBQONXHNTVIJ-UHFFFAOYSA-N,-3.31
8-phenylcaffeine,,CN1C(=O)N(C)C2=C([N](C)C(=N2)C3=CC=CC=C3)C1=O,MBYIBRUTNFFDFL-UHFFFAOYSA-N,-3.31
tmppt; tetramethylpyrimidopteridinetetrone,,CN1C(=O)N(C)C2=C(N=C3C(=O)N(C)C(=O)N(C)C3=N2)C1=O,PATBXKKMHRDFHF-UHFFFAOYSA-N,-3.31
"1,2,4-trimethylbenzene",,c1cc(C)cc(C)c1C,GWHJZXXIDMPWGX-UHFFFAOYSA-N,-3.31
p-chlorobenzoic_acid,,O=C(O)c(ccc(c1)Cl)c1,XRHGYUZYPHTUJZ-UHFFFAOYSA-N,-3.31
(2~{Z})-2-(pyridine-4-carbonylhydrazinylidene)propanoic acid,,CC(=NNC(=O)C1=CC=NC=C1)C(=O)O,ZGGPNDKKJIWQJU-UHFFFAOYSA-N,-3.31
2-amino-3-(2-amino-3-hydroxy-3-oxopropyl)disulfanylpropanoic acid,,NC(CSSCC(N)C(=O)O)C(=O)O,LEVWYRKDKASIDU-UHFFFAOYSA-N,-3.31
2-hydroxypropyl 2-(6-methoxynaphthalen-2-yl)propanoate,,COC1=CC=C2C=C(C(C)C(=O)OCC(C)O)C=CC2=C1,WHWFYEKLPWVBFT-UHFFFAOYSA-N,-3.31
"N-(3-bromophenyl)-8-methylpyrrolo[3,2-g]quinazolin-4-amine",,CN1C=CC2=C1C=C1N=CN=C(NC3=CC(Br)=CC=C3)C1=C2,QHAWLYRLLOXJAY-UHFFFAOYSA-N,-3.31