Name,ID,SMILES,inchi,LogS
"n,n-diethylcarbamoylmethyl nalidixate;  nalidixic acid (n,n-diethylcarbamoyl)methyl ester",,CCN(CC)C(=O)COC(=O)C1=CN(CC)C2=C(C=CC(=N2)C)C1=O,XZIBWWMTMXSPOO-UHFFFAOYSA-N,-1.43
N-(2-Bromo-4-methylpentanoyl)alanylalanine,,CC(C)CC(Br)C(=O)NC(C)C(=O)NC(C)C(=O)O,FELVZCWCSXALEG-UHFFFAOYSA-N,-1.43
4-(methyl-propylamino)diazenylbenzoic acid,,CCCN(C)N=NC1=CC=C(C(=O)O)C=C1,PTLAHMRONUBEOO-UHFFFAOYSA-N,-1.43
"5-[2-(2-aminopurin-9-yl)ethyl]-1,3-dioxan-2-one",,NC1=NC2=C(C=N1)N=CN2CCC1COC(=O)OC1,OAQJLOZJYFGWIC-UHFFFAOYSA-N,-1.43
Orphenadrine,CAS83-98-7,Cc1ccccc1C(OCCN(C)C)c1ccccc1,QVYRGXJJSLMXQH-UHFFFAOYSA-N,-1.43
heptan-2-one,,CCCCCC(C)=O,CATSNJVOTSVZJV-UHFFFAOYSA-N,-1.433338371
Tolterodine,CAS124937-51-5,Cc1ccc(O)c([C@H](CCN(C(C)C)C(C)C)c2ccccc2)c1,OOGJQPCLVADCPB-HXUWFJFHSA-N,-1.43
2-methylfuran,,Cc1occc1,VQKFNUFAXTZWDK-UHFFFAOYSA-N,-1.4372
"ethane, 1-chloro-1-nitro-",,CC(Cl)[N+]([O-])=O,LPIWIOBGUAPNQW-UHFFFAOYSA-N,-1.4374
difluoromethane,,FCF,RWRIWBAIICGTTQ-UHFFFAOYSA-N,-1.437441792
"2,2-dimethyl-1-pentanol",,CCCC(C)(C)CO,QTOMCRXZFDHJOL-UHFFFAOYSA-N,-1.4391
"sodium 1-amino-9,10-dioxo-4-({2,4,6-trimethyl-3-[(phenylformamido)methyl]phenyl}amino)-9,10-dihydroanthracene-2-sulfonate",,[Na+].Cc1cc(C)c(Nc2cc(c(N)c3C(=O)c4ccccc4C(=O)c23)[S]([O-])(=O)=O)c(C)c1CNC(=O)c5ccccc5,OFHDOLUPOLKDSG-UHFFFAOYSA-M,-1.439605121
"2-bromo-2,2-diethylacetamide",,CCC(Br)(CC)C(N)=O,ACEYAMOAGUDVAQ-UHFFFAOYSA-N,-1.44
5-methylcytosine,,CC1=CNC(=O)N=C1N,LRSASMSXMSNRBT-UHFFFAOYSA-N,-1.44
homatropine,,CN1C2CCC1CC(C2)OC(=O)C(O)c3ccccc3,ZTVIKZXZYLEVOL-UHFFFAOYSA-N,-1.44
n-methyl butylcarbamate,,CC(C)CCOC(N)=O,OLCIOXGQTLVZQT-UHFFFAOYSA-N,-1.4403
Azathioprine,CAS446-86-6,Cn1cnc([N+](=O)[O-])c1Sc1ncnc2nc[nH]c12,LMEKQMALGUDUQG-UHFFFAOYSA-N,-1.44
"3-(3-cyano-6-hydroxy-4-methyl-2-oxo-1,2-dihydropyridin-1-yl)propanoic acid",,CC1=C(C#N)C(=O)N(CCC(O)=O)C(=C1)O,WONCXRLGPXEDCT-UHFFFAOYSA-N,-1.443654068
benzenediazonium hexafluophosphate (1-),,F[P-](F)(F)(F)(F)F.N#[N+]c1ccccc1,GIDPFONPWSEBOB-UHFFFAOYSA-N,-1.4438
thiophene,,s1cccc1,YTPLMLYBLZKORZ-UHFFFAOYSA-N,-1.445011049
cyclohexanecarboxylic acid,,OC(=O)C1CCCCC1,NZNMSOFKMUBTKW-UHFFFAOYSA-N,-1.445031941
Proguanil,CAS500-92-5,CC(C)NC(=N)NC(=N)Nc1ccc(Cl)cc1,SSOLNOMRVKKSON-UHFFFAOYSA-N,-1.45
5-oxo-3-phenyl-hexanoic acid,,CC(=O)CC(CC(O)=O)c1ccccc1,DUGWBMXFSCILOV-UHFFFAOYSA-N,-1.4463
"(2S)-2-(1,3-dioxoisoindol-2-yl)pentanedioic acid",,OC(=O)CC[C@H](N1C(=O)c2ccccc2C1=O)C(O)=O,FEFFSKLJNYRHQN-VIFPVBQESA-N,-1.446331686
"1,2,3-benzenetricarboxylic acid, 5-bromo-",,OC(=O)c1cc(Br)cc(C(O)=O)c1C(O)=O,JSTKTNCNRDMHRQ-UHFFFAOYSA-N,-1.4481
"1,2-bis(2-chloroethylsulfonyl)ethane",,ClCC[S](=O)(=O)CC[S](=O)(=O)CCCl,FQMRVYDYXSOKHL-UHFFFAOYSA-N,-1.4486
"propanoic acid, 2-[(ethoxythioxomethyl)thio]-",,CCOC(=S)SC(C)C(O)=O,LWNPIVOFJQQAMH-UHFFFAOYSA-N,-1.4489
3-bromo-1-(3-chloropyridin-2-yl)-1H-pyrazole-5-carboxylic acid,,OC(=O)c1cc(Br)nn1c2ncccc2Cl,FORBXGROTPOMEH-UHFFFAOYSA-N,-1.448934642
"1h-purine-2,6-dione, 3,7-dihydro-1,3,7,8-tetrame",,CN1C(=O)N(C)c2nc(C)n(C)c2C1=O,LFHHOHMIVKIHMG-UHFFFAOYSA-N,-1.4493
"thiourea, 3-(nitrophenyl)-",,NC(=S)Nc1cccc(c1)[N+]([O-])=O,HQEMUQNZGCZHHN-UHFFFAOYSA-N,-1.4499
7-(propoxycarbonyl)theophylline,,CCCOC(=O)[N]1C=NC2=C1C(=O)N(C)C(=O)N2C,QIBCKFKIAKARGI-UHFFFAOYSA-N,-1.45
Methyl N-[2-({[(2-methyl-2-propanyl)oxy]carbonyl}amino)-4-pentynoyl]glycinate,,C#CCC(NC(=O)OC(C)(C)C)C(=O)NCC(=O)OC,FNEJJUKMTUNAMN-UHFFFAOYSA-N,-1.45
N-Hydroxy-N-methylcycloheptanecarboxamide,,CN(O)C(=O)C1CCCCCC1,CDTJSQNOOHANPR-UHFFFAOYSA-N,-1.45
"propane, 2,2-bis(methylsulfonyl)-",,CC(C)([S](C)(=O)=O)[S](C)(=O)=O,YBSYYLRYPMFRNL-UHFFFAOYSA-N,-1.4504
"2-[7-(diethylamino)-2-oxo-2H-1-benzopyran-3-yl]-1,3-dimethyl-1H-benzimidazolium chloride",,[Cl-].CCN(CC)c1ccc2C=C(C(=O)Oc2c1)c3n(C)c4ccccc4[n+]3C,LCVNGSHJQQOSDB-UHFFFAOYSA-M,-1.450561375
"acetic acid, 2,2'-tetrathiobis-",,OC(=O)CSSSSCC(O)=O,OMDZYSJJXJMDDF-UHFFFAOYSA-N,-1.452
1-chloropropane,,CCCCl,SNMVRZFUUCLYTO-UHFFFAOYSA-N,-1.45340682
"6-amino-1,3-dimethyl-1,2,3,4-tetrahydropyrimidine-2,4-dione",,CN1C(=CC(=O)N(C)C1=O)N,VFGRNTYELNYSKJ-UHFFFAOYSA-N,-1.453578731
Hydromorphone,CAS466-99-9,CN1CC[C@]23c4c5ccc(O)c4O[C@H]2C(=O)CC[C@H]3[C@H]1C5,WVLOADHCBXTIJK-YNHQPCIGSA-N,-1.46
"barbituric acid, 5-ipr",,CC(C)C1C(=O)NC(=O)NC1=O,GFPIGNBQTXNNAG-UHFFFAOYSA-N,-1.4556
isoquinoline,,c1ccc2cnccc2c1,AWJUIBRHMBBTKR-UHFFFAOYSA-N,-1.456
ethoate methyl,,CCNC(=O)CS[P](=S)(OC)OC,DICRHEJCQXFJBY-UHFFFAOYSA-N,-1.4567
Galantamine,CAS357-70-0,COc1ccc2c3c1O[C@H]1C[C@@H](O)C=C[C@@]31CCN(C)C2,ASUTZQLVASHGKV-JDFRZJQESA-N,-1.46
fosthiazate,,CCO[P](=O)(SC(C)CC)N1CCSC1=O,DUFVKSUJRWYZQP-UHFFFAOYSA-N,-1.4589
"disodium 2,2'-ethene-1,2-diylbis[5-({4-anilino-6-[(2-hydroxyethyl)amino]-1,3,5-triazin-2-yl}amino)benzenesulfonate]",,[Na+].[Na+].OCCNc1nc(Nc2ccccc2)nc(Nc3ccc(\C=C\c4ccc(Nc5nc(NCCO)nc(Nc6ccccc6)n5)cc4[S]([O-])(=O)=O)c(c3)[S]([O-])(=O)=O)n1,HIMNALZNLAOESZ-YHPRVSEPSA-L,-1.4592144
isopropyl nitrate,,CC(C)O[N+]([O-])=O,GAPFWGOSHOCNBM-UHFFFAOYSA-N,-1.4593
"Dodecan-1-ol, ethoxylated",,CCCCCCCCCCCCOCCO,SFNALCNOMXIBKG-UHFFFAOYSA-N,-1.459377408
chlorodifluoromethane,,FC(F)Cl,VOPWNXZWBYDODV-UHFFFAOYSA-N,-1.459734159
"2,4(1h,3h)-pteridinedione, 1,3-dimethyl-",,CN1C(=O)N(C)c2nccnc2C1=O,LMXZVISHHDYBFW-UHFFFAOYSA-N,-1.4598
"1,3-diethyl-2-thiourea;  n,n'-diethylthiourea",,CCNC(=S)NCC,FLVIGYVXZHLUHP-UHFFFAOYSA-N,-1.46
3-ethoxycarboxymethyl-5-fluorouracil;  3-(ethoxycarbonyloxymethyl)-5-fluorouracil,,CCOC(=O)OCN1C(=O)NC=C(F)C1=O,PYIAFNMJTZYTJR-UHFFFAOYSA-N,-1.46
"2-sulfamoyl-5-(3-nitrobenzenesulfonamido)-1,3,4-thiadiazole",,N[S](=O)(=O)C1=NN=C(N[S](=O)(=O)C2=CC(=CC=C2)[N+]([O-])=O)S1,MPMQAYYQEKNVDO-UHFFFAOYSA-N,-1.46
4-(6-methoxynaphthalen-2-yl)butan-2-one,,COC1=CC=C2C=C(CCC(C)=O)C=CC2=C1,BLXXJMDCKKHMKV-UHFFFAOYSA-N,-1.46
"1-(2,3,4,5-tetrahydroxypentyl)-3,4-dihydro-1,4-benzodiazepine-2,5-dione",,O=C1NCC(=O)N(CC(O)C(O)C(O)CO)C2=C1C=CC=C2,SSOKMRFNHGGGGS-UHFFFAOYSA-N,-1.46
"2-(hydroxymethyl)-6-(phenoxy)oxane-3,4,5-triol",,OCC1OC(OC2=CC=CC=C2)C(O)C(O)C1O,NEZJDVYDSZTRFS-UHFFFAOYSA-N,-1.46
"tetrasodium (6Z)-4-acetamido-5-oxo-6-(2-{7-sulfonato-4-[(E)-2-(4-sulfonatophenyl)diazen-1-yl]naphthalen-1-yl}hydrazin-1-ylidene)-5,6-dihydronaphthalene-1,7-disulfonate",,[Na+].[Na+].[Na+].[Na+].CC(=O)Nc1ccc(c2C=C(/C(=N/Nc3ccc(N=Nc4ccc(cc4)[S]([O-])(=O)=O)c5ccc(cc35)[S]([O-])(=O)=O)C(=O)c12)[S]([O-])(=O)=O)[S]([O-])(=O)=O,AGKKBBSOKGLVTM-YENKNCRGSA-J,-1.461244839
Cephalexin,CAS15686-71-2,CC1=C(C(=O)O)N2C(=O)[C@@H](NC(=O)[C@H](N)c3ccccc3)[C@H]2SC1,ZAIPMKNFIOOWCQ-UEKVPHQBSA-N,-1.46
Vancomycin,CAS1404-90-6,CN[C@H](CC(C)C)C(=O)N[C@H]1C(=O)N[C@@H](CC(N)=O)C(=O)N[C@H]2C(=O)N[C@H]3C(=O)N[C@H](C(=O)N[C@H](C(=O)O)c4cc(O)cc(O)c4-c4cc3ccc4O)[C@H](O)c3ccc(c(Cl)c3)Oc3cc2cc(c3O[C@@H]2OC(CO)[C@@H](O)[C@H](O)[C@H]2O[C@H]2C[C@](C)(N)[C@H](O)[C@H](C)O2)Oc2ccc(cc2Cl)[C@H]1O.Cl,LCTORFDMHNKUSG-DOUUZMDISA-N,-1.46
"hexanedioic acid, dimethyl ester",,COC(=O)CCCCC(=O)OC,UDSFAEKRVUSQDD-UHFFFAOYSA-N,-1.4629
formaldehyde; 2-(2-hydroxyethylamino)ethanol; 2-methyloxirane; 2-nonylphenol,,CCCCCCCCCc1ccccc1O.CC2CO2.OCCNCCO.C=O,RUMPVAYNMPZNCZ-UHFFFAOYSA-N,-1.463069491
3-heptanol,,CCCCC(O)CC,RZKSECIXORKHQS-UHFFFAOYSA-N,-1.4631
disodium 8-(phenylamino)-5-[[4-[(5-sulphonatonaphthyl)azo]naphthyl]azo]naphthalenesulphonate,,[Na+].[Na+].[O-][S](=O)(=O)c1cccc2c(cccc12)N=Nc3ccc(N=Nc4ccc(Nc5ccccc5)c6c4cccc6[S]([O-])(=O)=O)c7ccccc37,OLPWJTQWWFWEFS-UHFFFAOYSA-L,-1.463118539
Streptomycin,CAS57-92-1,CN[C@@H]1[C@H](O[C@H]2[C@H](O[C@@H]3[C@@H](NC(=N)N)[C@H](O)[C@@H](NC(=N)N)[C@H](O)[C@H]3O)O[C@@H](C)[C@]2(O)C=O)O[C@@H](CO)[C@H](O)[C@H]1O,UCSJYZPVAKXKNQ-HZYVHMACSA-N,-1.46
1-buten-3-yne,,C=CC#C,WFYPICNXBKQZGB-UHFFFAOYSA-N,-1.4648
Pefloxacin,CAS70458-92-3,CCn1cc(C(=O)O)c(=O)c2cc(F)c(N3CCN(C)CC3)cc21,FHFYDNQZQSQIAI-UHFFFAOYSA-N,-1.47
"2,3,6-trichlorobenzoic acid",,OC(=O)c1c(Cl)ccc(Cl)c1Cl,XZIDTOHMJBOSOX-UHFFFAOYSA-N,-1.4666
(ethylsulfanyl)ethane,,CCSCC,LJSQFQKUNVCTIA-UHFFFAOYSA-N,-1.468024827
"1,4-dithiane-2,5-diol",,OC1CSC(O)CS1,YUIOPHXTILULQC-UHFFFAOYSA-N,-1.469038232
2-({3-[bis(carboxymethyl)amino]propyl}(carboxymethyl)amino)acetic acid,,OC(=O)CN(CCCN(CC(O)=O)CC(O)=O)CC(O)=O,DMQQXDPCRUGSQB-UHFFFAOYSA-N,-1.469072537
2-hydroxy-1-[4-(2-hydroxyethoxy)phenyl]-2-methylpropan-1-one,,CC(C)(O)C(=O)c1ccc(OCCO)cc1,GJKGAPPUXSSCFI-UHFFFAOYSA-N,-1.469930479
1-ethoxycarbonyl-5-fluorouracil,,CCOC(=O)N1C=C(F)C(=O)NC1=O,XRHUFADXPHBXFZ-UHFFFAOYSA-N,-1.47
n-Amyl_Carbamate,,NC(=O)OCCCCC,MYDQAEQZZKVJSL-UHFFFAOYSA-N,-1.47
"5-ethyl-5-(2-hydroxyethyl)-2-sulfanylidene-1,3-diazinane-4,6-dione",,CCC1(CCO)C(=O)NC(=S)NC1=O,ORQISITYMWGFKX-UHFFFAOYSA-N,-1.47
2-[[2-[[2-amino-3-(4-hydroxyphenyl)propanoyl]amino]acetyl]amino]acetic acid,,NC(CC1=CC=C(O)C=C1)C(=O)NCC(=O)NCC(=O)O,HIINQLBHPIQYHN-UHFFFAOYSA-N,-1.47
"ethanone, 1-(3,4,5-trihydroxyphenyl)-",,CC(=O)c1cc(O)c(O)c(O)c1,IBKQQKPQRYUGBJ-UHFFFAOYSA-N,-1.4711
4-hydroxypteridine,,O=C1N=CNc2nccnc12,UWWUXWWWOUNMKW-UHFFFAOYSA-N,-1.4716
Diazobarbituric acid,,[N-]=[N+]=C1C(=O)NC(=O)NC1=O,HBZLKQCYQCZGAN-UHFFFAOYSA-N,-1.471757019
2-Ethoxy-2-methylbutane,,CCOC(C)(C)CC,KFRVYYGHSPLXSZ-UHFFFAOYSA-N,-1.471935011
Buprenorphine Hydrochloride,CAS53152-21-9,CC(C)(C)C(C)(C1CC23CCC1(C4C25CCN(C3CC6=C5C(=C(C=C6)O)O4)CC7CC7)OC)O.Cl,UAIXRPCCYXNJMQ-UHFFFAOYSA-N,-1.47
2-[1-(carboxymethyl)cyclohexyl]acetic acid,,OC(=O)CC1(CCCCC1)CC(O)=O,YQPCHPBGAALCRT-UHFFFAOYSA-N,-1.47223405
thiophene-3-carboxylic acid,,OC(=O)c1cscc1,YNVOMSDITJMNET-UHFFFAOYSA-N,-1.4743
3-methylbut-2-en-1-yl acetate,,CC(=O)OCC=C(C)C,XXIKYCPRDXIMQM-UHFFFAOYSA-N,-1.474321317
carbon dioxide,,O=C=O,CURLTUGMZLYLDI-UHFFFAOYSA-N,-1.4748
diethyl pentyl phosphate,,CCCCCO[P](=O)(OCC)OCC,ITJPTURSPJESQC-UHFFFAOYSA-N,-1.4757
Imipenem,CAS74431-23-5,C[C@@H](O)[C@H]1C(=O)N2C(C(=O)O)=C(SCCNC=N)C[C@H]12.O,GSOSVVULSKVSLQ-JJVRHELESA-N,-1.48
"sodium hydrogen 4-amino-5-hydroxynaphthalene-2,7-disulfonate",,[Na+].Nc1cc(cc2cc(cc(O)c12)[S]([O-])(=O)=O)[S](O)(=O)=O,QPILZZVXGUNELN-UHFFFAOYSA-M,-1.476228892
"ethene, (2,2,2-trifluoroethoxy)-",,FC(F)(F)COC=C,DLEGDLSLRSOURQ-UHFFFAOYSA-N,-1.478
Trihexyphenidyl (Benzhexol),PubChemCID5572,C1CCC(CC1)C(CCN2CCCCC2)(C3=CC=CC=C3)O,HWHLPVGTWGOCJO-UHFFFAOYSA-N,-1.48
4-heptanone;  dipropyl  ketone,,CCCC(=O)CCC,HCFAJYNVAYBARA-UHFFFAOYSA-N,-1.48
"2,3-pyridinedicarboxylic  acid;  quinolinic  acid",,OC(=O)C1=CC=CN=C1C(O)=O,GJAWHXHKYYXBSV-UHFFFAOYSA-N,-1.48
2-methoxypurine,,COC1=NC2=C([NH]C=N2)C=N1,HKCXKNGHGLCFHK-UHFFFAOYSA-N,-1.48
4-toluenesulfonic acid hydrazide,,CC1=CC=C(C=C1)[S](=O)(=O)NN,ICGLPKIVTVWCFT-UHFFFAOYSA-N,-1.48
uracil,,C1=CC(=O)NC(=O)N1,ISAKRJDGNUQOIC-UHFFFAOYSA-N,-1.48
(4-ethyl-3-methylquinolin-2-yl)methanamine,,CCC1=C2C=CC=CC2=NC(CN)=C1C,NRGZORWWHZQKDH-UHFFFAOYSA-N,-1.48
4-hydroxyquinoline,,O=C1C=CNc2ccccc12,PMZDQRJGMBOQBF-UHFFFAOYSA-N,-1.481
3-amino-2-chloro-6-methylphenol,,Cc1ccc(N)c(Cl)c1O,XYRDGCCCBJITBH-UHFFFAOYSA-N,-1.48155287
"1,2-benzenedicarboxylic acid, mono(2-hydroxyethy",,OCCOC(=O)c1ccccc1C(O)=O,NTINFTOOVNKGIU-UHFFFAOYSA-N,-1.4825
vicine,,NC1=NC(=O)C(=C(N)N1)O[C@@H]2O[C@H](CO)[C@@H](O)[C@H](O)[C@H]2O,KGNGTSCIQCLKEH-SYCVNHKBSA-N,-1.4832
"2,4,6-triethoxy-s-triazine",,CCOc1nc(OCC)nc(OCC)n1,ZLKYBXDNXFQYDL-UHFFFAOYSA-N,-1.4838
trifluoroacetamide,,NC(=O)C(F)(F)F,NRKYWOKHZRQRJR-UHFFFAOYSA-N,-1.485022741
1-nitroguanidine,,NC(N)=N[N+]([O-])=O,IDCPFAYURAQKDZ-UHFFFAOYSA-N,-1.485842464
Cyclizine,PubChemCID6726,CN1CCN(CC1)C(C2=CC=CC=C2)C3=CC=CC=C3,UVKZSORBKUEBAZ-UHFFFAOYSA-N,-1.49
2-nitrobenzyl alcohol,,OCc1ccccc1[N+]([O-])=O,BWRBVBFLFQKBPT-UHFFFAOYSA-N,-1.4861
phenyl diamidophosphate,,N[P](N)(=O)Oc1ccccc1,AYRRNFHDJUXLEQ-UHFFFAOYSA-N,-1.487653403
6-pent-3-en-1-yltetrahydro-2H-pyran-2-one,,C/C=C/CCC1CCCC(=O)O1,NBCMACYORPIYNY-NSCUHMNNSA-N,-1.488726291
"7(8h)-pteridinone, 6,8-dimethyl-",,CN1C(=O)C(=Nc2cncnc12)C,QLMHRZQMPAMXNG-UHFFFAOYSA-N,-1.489
"S-(1,2-Dichlorovinyl)-L-cysteine",,N[C@@H](CSC(/Cl)=C/Cl)C(O)=O,PJIHCWJOTSJIPQ-AGFFZDDWSA-N,-1.4895
5-ethyl-5-propylbarbituric  acid,,CCCC1(CC)C(=O)NC(=O)NC1=O,XIBUBTQSOGWALU-UHFFFAOYSA-N,-1.49
2-(2-cyanoethylamino)-3-phenylpropanoic acid,,N#CCCNC(CC1=CC=CC=C1)C(=O)O,RDEPSYXOVXRWGR-UHFFFAOYSA-N,-1.49
2-(1-phenylethylamino)ethyl 4-ethoxybenzoate,,CCOC1=CC=C(C(=O)OCCNC(C)C2=CC=CC=C2)C=C1,UDMQHGKMZUJTDM-UHFFFAOYSA-N,-1.49
"16-(dimethylaminomethyl)-3-hydroxy-10,13-dimethyl-1,2,3,4,7,8,9,11,12,14,15,16-dodecahydrocyclopenta[a]phenanthren-17-one",,CN(C)CC1CC2C3CC=C4CC(O)CCC4(C)C3CCC2(C)C1=O,JZXWQNLDFVFNTR-UHFFFAOYSA-N,-1.49
2-(4-methylpiperazin-1-yl)ethyl 2-(6-methoxynaphthalen-2-yl)propanoate,,COC1=CC2=CC=C(C(C)C(=O)OCCN3CCN(C)CC3)C=C2C=C1,CBVJNCUEPFCOOK-UHFFFAOYSA-N,-1.49
6-chloropurine,,Clc1ncnc2nc[nH]c12,ZKBQDFAWXLTYKS-UHFFFAOYSA-N,-1.4901
"disodium 2-[(E)-2-[3-methyl-5-oxo-1-(4-sulfonatophenyl)-4,5-dihydro-1H-pyrazol-4-yl]diazen-1-yl]benzoate",,[Na+].[Na+].CC1=NN(C(=O)C1N=Nc2ccccc2C([O-])=O)c3ccc(cc3)[S]([O-])(=O)=O,RTBLVNSNIFUUFC-UHFFFAOYSA-L,-1.491314993
propagermanium,,OC(=O)CC[Ge](=O)O[Ge](=O)CCC(O)=O,XEABSBMNTNXEJM-UHFFFAOYSA-N,-1.4932
"dl-phenylalanine, n-(2-cyanoethyl)-",,[O-]C(=O)[C@H](Cc1ccccc1)[NH2+]CCC#N,RDEPSYXOVXRWGR-NSHDSACASA-N,-1.4939
2-amino-5-methylbenzene-1-sulfonic acid,,Cc1ccc(N)c(c1)[S](O)(=O)=O,LTPSRQRIPCVMKQ-UHFFFAOYSA-N,-1.494200991
N-methyl-N-phenylformamide,,CN(C=O)c1ccccc1,JIKUXBYRTXDNIY-UHFFFAOYSA-N,-1.494780947
"1,3,5-tris(oxiran-2-ylmethyl)-1,3,5-triazinane-2,4,6-trione",,O=C1N(CC2CO2)C(=O)N(CC3CO3)C(=O)N1CC4CO4,OUPZKGBUJRBPGC-UHFFFAOYSA-N,-1.495423095
dimethyl disulfide,,CSSC,WQOXQRCZOLPYPM-UHFFFAOYSA-N,-1.4969
Pindolol,CAS13523-86-9,CC(C)NCC(O)COc1cccc2[nH]ccc12,JZQKKSLKJUAGIC-UHFFFAOYSA-N,-1.5
"octasodium 7,7'-[(2,2'-disulphonato[1,1'-biphenyl]-4,4'-diyl)bis[imino(6-chloro-1,3,5-triazine-4,2-diyl)imino[2-(carbamoylamino)]-4,1-phenylene]azo]]bis(naphthalene-1,3,6-trisulphonate)",,[Na+].[Na+].[Na+].[Na+].[Na+].[Na+].[Na+].[Na+].NC(=O)Nc1cc(Nc2nc(Cl)nc(Nc3ccc(c4ccc(Nc5nc(Cl)nc(Nc6ccc(N=Nc7cc8c(cc(cc8[S]([O-])(=O)=O)[S]([O-])(=O)=O)cc7[S]([O-])(=O)=O)c(NC(N)=O)c6)n5)cc4[S]([O-])(=O)=O)c(c3)[S]([O-])(=O)=O)n2)ccc1N=Nc9cc%10c(cc(cc%10[S]([O-])(=O)=O)[S]([O-])(=O)=O)cc9[S]([O-])(=O)=O,WAPHSRMHUOCGQE-UHFFFAOYSA-F,-1.498168281
"acetamide, 2-[[(benzoyloxy)acetyl]amino]-",,NC(=O)CNC(=O)COC(=O)c1ccccc1,XYGUXAGVJDBSBP-UHFFFAOYSA-N,-1.4983
aldicarb,,CNC(=O)O\N=C\C(C)(C)SC,QGLZXHRNAYXIBU-WEVVVXLNSA-N,-1.4991
"phosphoric acid, dibutyl methyl ester",,CCCCO[P](=O)(OC)OCCCC,LPRHLAXCXZTKNI-UHFFFAOYSA-N,-1.4995
3-bromo-1-propene,,BrCC=C,BHELZAPQIKSEDF-UHFFFAOYSA-N,-1.4995
"1,1-dichloro-1-nitropropane",,CCC(Cl)(Cl)[N+]([O-])=O,DNYOTMDPSXBJRJ-UHFFFAOYSA-N,-1.4996
"ethenesulfonamide, n-phenyl-",,C=C[S](=O)(=O)Nc1ccccc1,YRLXBWHNSONKOH-UHFFFAOYSA-N,-1.4996
"1,1,1,2,2,4,5,5,5-nonafluoro-4-(trifluoromethyl)pentan-3-one",,FC(F)(F)C(F)(F)C(=O)C(F)(C(F)(F)F)C(F)(F)F,RMLFHPWPTXWZNJ-UHFFFAOYSA-N,-1.499743427
"ethanol, 2-mercapto-, 1-acetate",,CC(=O)OCCS,YDLAHBBJAGGIJZ-UHFFFAOYSA-N,-1.5
"5-(4-aminobenzenesulfonamido)-1,3,4-thiadiazole-2-sulfonamide",,NC1=CC=C(C=C1)[S](=O)(=O)NC2=NN=C(S2)[S](N)(=O)=O,BDLSLORLEPSOGW-UHFFFAOYSA-N,-1.5
bis-(2.chloroethyl)-sulfone,,ClCCS(=O)(=O)CCl,XEPMSXZCQZXKRP-UHFFFAOYSA-N,-1.5
coniine,,N(C(CCC1)CC)C1,QBBKKFZGCDJDQK-UHFFFAOYSA-N,-1.5
Benzyl phenyl(sulfooxy)acetate,,O=C(OCC1=CC=CC=C1)C(OS(=O)(=O)O)C1=CC=CC=C1,DBVLMJUSUCGUJL-UHFFFAOYSA-N,-1.5
4-[3-[(3-methylbutylamino)methyl]benzoyl]thiophene-2-sulfonamide,,CC(C)CCNCC1=CC=CC(C(=O)C2=CSC(S(N)(=O)=O)=C2)=C1,MRICEOMWIZSYAC-UHFFFAOYSA-N,-1.5
4-(2-propylpentanoylamino)butanoic acid,,CCCC(CCC)C(=O)NCCCC(=O)O,VTENVAFNLWTNGE-UHFFFAOYSA-N,-1.5
2-propylpiperidine,PubChemCID9985,CCCC1CCCCN1,NDNUANOUGZGEPO-UHFFFAOYSA-N,-1.5
"3,4-dinitrobenzoic acid",,OC(=O)c1ccc(c(c1)[N+]([O-])=O)[N+]([O-])=O,OMVRRHJJQILIJX-UHFFFAOYSA-N,-1.5005
"ethanone, 1-(4-hydroxyphenyl)-2-phenyl-",,Oc1ccc(cc1)C(=O)Cc2ccccc2,JBQTZLNCDIFCCO-UHFFFAOYSA-N,-1.5008
4-chloroguaiacol,,COc1cc(Cl)ccc1O,FVZQMMMRFNURSH-UHFFFAOYSA-N,-1.5013
p-anisaldehyde,,COc1ccc(C=O)cc1,ZRSNZINYAWTAHE-UHFFFAOYSA-N,-1.5016
"1,1'-sulfonylbis(2-chloroethane)",,ClCC[S](=O)(=O)CCCl,LUYAMNYBNTVQJG-UHFFFAOYSA-N,-1.5031
"3,4-xylidine",,Cc1ccc(N)cc1C,DOLQYFPDPKPQSS-UHFFFAOYSA-N,-1.5036
1-[(2-hydroxypropyl)(4-methylphenyl)amino]propan-2-ol,,CC(O)CN(CC(C)O)c1ccc(C)cc1,JFZVSHAMRZPOPA-UHFFFAOYSA-N,-1.5038218
N-butylbutan-1-amine,,CCCCNCCCC,JQVDAXLFBXTEQA-UHFFFAOYSA-N,-1.503965448
"disodium 4-nitrobenzene-1,3-diamine 3-amino-4-methoxybenzene-1-sulfonate 3-hydroxybenzen-1-olate copper",,[Na+].[Na+].[Cu].COc1ccc(cc1N)[S]([O-])(=O)=O.Nc2ccc(c(N)c2)[N+]([O-])=O.Oc3cccc([O-])c3,HJDUSPQCBUUNBC-UHFFFAOYSA-L,-1.504350196
1-propylnitrate,,CCCO[N+]([O-])=O,JNTOKFNBDFMTIV-UHFFFAOYSA-N,-1.5044
disodium 2-[(E)-2-(4-{4-[(E)-2-(2-sulfonatophenyl)ethenyl]phenyl}phenyl)ethenyl]benzene-1-sulfonate,,[Na+].[Na+].[O-][S](=O)(=O)c1ccccc1\C=C/c2ccc(cc2)c3ccc(cc3)\C=C/c4ccccc4[S]([O-])(=O)=O,PMPJQLCPEQFEJW-GNTLFSRWSA-L,-1.504668533
tert-butyl chloride,,CC(C)(C)Cl,NBRKLOOSMBRFMH-UHFFFAOYSA-N,-1.507
(cyclohexylmethyl)tris(dimethylamino)phosphanium; tetrafluoroboranuide,,CN(C)[P+](CC1CCCCC1)(N(C)C)N(C)C.F[B-](F)(F)F,GOLIFAGXKWMYJQ-UHFFFAOYSA-N,-1.507143452
8-chlorotheophylline,,CN1C(=O)N(C)c2nc(Cl)[nH]c2C1=O,RYIGNEOBDRVTHA-UHFFFAOYSA-N,-1.5075
2-hydroperoxy-2-(2-hydroperoxybutan-2-ylperoxy)butane,,CCC(C)(OO)OOC(C)(CC)OO,WFUGQJXVXHBTEM-UHFFFAOYSA-N,-1.507773246
3-(trifluoromethyl)aniline,,Nc1cccc(c1)C(F)(F)F,VIUDTWATMPPKEL-UHFFFAOYSA-N,-1.508195621
amino(phenyl)acetic acid,,[NH3+][C@@H](C([O-])=O)c1ccccc1,ZGUNAGUHMKGQNY-SSDOTTSWSA-N,-1.508278406
"(2,5-dioxoimidazolidin-4-yl)urea",,NC(=O)NC1NC(=O)NC1=O,POJWUDADGALRAB-UHFFFAOYSA-N,-1.508782486
quanidinoacetic_acid,,NC(=N)NCC(=O)O,BPMFZUMJYQTVII-UHFFFAOYSA-N,-1.51
"3-methyl-1-(2,3,4,5-tetrahydroxypentyl)-3,4-dihydro-1,4-benzodiazepine-2,5-dione",,CC1NC(=O)C2=C(C=CC=C2)N(CC(O)C(O)C(O)CO)C1=O,MHRJDYHNVDCBNF-UHFFFAOYSA-N,-1.51
phorate sulfoxide,,CCO[P](=O)(OCC)SC[S](=O)CC,RCRHKXGEYNVPDK-UHFFFAOYSA-N,-1.5124
Ergonovine; Ergometrine,PubChemCID6437065,CC(CO)NC(=O)C1CN(C2CC3=CNC4=CC=CC(=C34)C2=C1)C.C(=CC(=O)O)C(=O)O,YREISLCRUMOYAY-UHFFFAOYSA-N,-1.51
"3,5-dinitro-l-tyrosine",,N[C@@H](Cc1cc(c(O)c(c1)[N+]([O-])=O)[N+]([O-])=O)C(O)=O,SAZOSDSFLRXREA-YFKPBYRVSA-N,-1.5125
"8h-purin-8-one, 1,7-dihydro-",,O=C1Nc2cncnc2N1,YPDSIEMYVQERLJ-UHFFFAOYSA-N,-1.5141
Dihydroquinidine; Hydroquinidine,CAS113162-02-0,CC[C@@H]1CN2CC[C@H]1C[C@@H]2[C@@H](OC(=O)c1ccc(Cl)cc1)c1ccnc2ccc(OC)cc12,TXVNNFDXQZFMBQ-XHYUFEOFSA-N,-1.51
"phosphonic acid, (1,6-hexanediylbis(nitrilobis(m",,O[P](O)(=O)CN(CCCCCCN(C[P](O)(O)=O)C[P](O)(O)=O)C[P](O)(O)=O,KIDJHPQACZGFTI-UHFFFAOYSA-N,-1.5161
ethrane [haloether],,FC(F)OC(F)(F)C(F)Cl,JPGQOUSTVILISH-UHFFFAOYSA-N,-1.5162
2-(propan-2-yloxy)propane,,CC(C)OC(C)C,ZAFNJMIOTHYJRJ-UHFFFAOYSA-N,-1.516592758
"5-methyl-1H-1,2,3-benzotriazole",,Cc1cccc2n[nH]nc12,CMGDVUCDZOBDNL-UHFFFAOYSA-N,-1.516963539
"quinoline, 5-acetamido-8-ethoxy-",,CCOc1ccc(NC(C)=O)c2cccnc12,UHIFHPBBOPIWEO-UHFFFAOYSA-N,-1.5171
Diclofenac,CAS15307-86-5,O=C1Cc2ccccc2N1c1c(Cl)cccc1Cl,JCICIFOYVSPMHG-UHFFFAOYSA-N,-1.52
5-methyluracil,,CC1=CNC(=O)NC1=O,RWQNBRDOKXIBIV-UHFFFAOYSA-N,-1.5187
anthranilic  acid;  2-aminobenzoic  acid,,NC1=C(C=CC=C1)C(O)=O,RWZYAGGXGHYGMB-UHFFFAOYSA-N,-1.52
4-acetylphenyl acetate;  acetic acid 4-acetylphenyl ester;  4-acetoxyacetophenone,,CC(=O)OC1=CC=C(C=C1)C(C)=O,SMIOEQSLJNNKQF-UHFFFAOYSA-N,-1.52
8-hydroxymethylpurine,,OCC1=NC2=C([NH]1)C=NC=N2,NFZTXJKXCFQRGN-UHFFFAOYSA-N,-1.52
"2,6,8-triaminopurine",,NC1=NC2=C([NH]1)N=C(N)N=C2N,FNUSUXSXQXLDBC-UHFFFAOYSA-N,-1.52
codeine,,COc1ccc2CC5C3C=CC(O)C4Oc1c2C34CCN5C,OROGSEYTTFOCAN-UHFFFAOYSA-N,-1.52
"2-(1,5-dimethylpyrazol-3-yl)oxy-4,6-dimethylpyrimidine",,CC1=CC(C)=NC(OC2=NN(C)C(C)=C2)=N1,LBFLLEWQPRGUHX-UHFFFAOYSA-N,-1.52
"(1,5-dimethyl-3-oxo-2-phenylpyrazol-4-yl)urea",,CC1=C(NC(N)=O)C(=O)N(C2=CC=CC=C2)N1C,NIXHNSPZZPUXPV-UHFFFAOYSA-N,-1.52
"4,4-dimethylbicyclo[3.2.1]octane-2,3-dione",,CC1(C)C(=O)C(=O)C2CCC1C2,UHONRUDDOVMSCJ-UHFFFAOYSA-N,-1.52
"[5-(2,2-dimethyl-1,3-dioxolan-4-yl)-2,2-dimethyl-3a,5,6,6a-tetrahydrofuro[4,5-d][1,3]dioxol-6-yl] acetate",,CC(=O)OC1C(C2COC(C)(C)O2)OC2OC(C)(C)OC21,QZKDRLZSJSWQPS-UHFFFAOYSA-N,-1.52