Name,ID,SMILES,inchi,LogS
kitazine,,CCO[P](=O)(OCC)SCc1ccccc1,XFMJUIKWKVJNDY-UHFFFAOYSA-N,-2.4155
1-chloro-2-fluorobenzene,,Fc1ccccc1Cl,ZCJAYDKWZAWMPR-UHFFFAOYSA-N,-2.4157
4-bromophenyl acetate,,CC(=O)Oc1ccc(Br)cc1,XEXHCQJRVMVJMY-UHFFFAOYSA-N,-2.416604157
"2,4-dichloroaniline",,Nc1ccc(Cl)cc1Cl,KQCMTOWTPBNWDB-UHFFFAOYSA-N,-2.417174258
Tetracycline,CAS60-54-8,CN(C)[C@@H]1C(O)=C(C(N)=O)C(=O)[C@@]2(O)C(O)=C3C(=O)c4c(O)cccc4[C@@](C)(O)[C@H]3C[C@@H]12,OFVLGDICTFRJMM-WESIUVDSSA-N,-2.42
4-tert-butylcyclohexan-1-one,,CC(C)(C)C1CCC(=O)CC1,YKFKEYKJGVSEIX-UHFFFAOYSA-N,-2.417381608
[2-(cyclohexyloxy)ethyl]benzene,,C1CCC(CC1)OCCc2ccccc2,HLMIVULQFMULRM-UHFFFAOYSA-N,-2.418090055
"2,2-diethyl-1-pentanol",,CCCC(CC)(CC)CO,PHSORZZLPKIHMG-UHFFFAOYSA-N,-2.419
"octahydro-1H-4,7-methanoindene-1-carbaldehyde",,O=CC1CCC2C3CCC(C3)C12,USPJNXWHVJTDJW-UHFFFAOYSA-N,-2.419967647
carbofuran,,CNC(=O)OC1=C2OC(C)(C)CC2=CC=C1,DUEPRVBVGDRKAG-UHFFFAOYSA-N,-2.42
"methoxymethyl  2-cyhexen-1-yl-2,6-dimethylmalonurate",,CNC(=O)NC(=O)C(C)(C(=O)OCOC)C1=CCCCC1,UZDLWQVGUQTYLF-UHFFFAOYSA-N,-2.42
4-diazobenzenesulfonic  acid,,O[S](=O)(=O)C1=CC=C(C=C1)[N+]#N,UEUIKXVPXLWUDU-UHFFFAOYSA-O,-2.42
"ketoprofen,  ester 4c; n-methyl-n-[2-(2'-(3''-benzoyl-phenyl)propanoyloxy)acetyl]glycineamide",,CC(C(=O)OCC(=O)N(C)CC(N)=O)C1=CC(=CC=C1)C(=O)C2=CC=CC=C2,HJQCXQXWUDAPBT-UHFFFAOYSA-N,-2.42
2-chloroacridin-9-amine,,NC1=C2C=C(Cl)C=CC2=NC2=C1C=CC=C2,LWEBYMLDVJZRKF-UHFFFAOYSA-N,-2.42
Diethyldisulfide,,CCSSCC,CETBSQOFQKLHHZ-UHFFFAOYSA-N,-2.42
"(1S-endo)-1,7,7-trimethylbicyclo[2.2.1]heptan-2-ol",,CC1(C)[C@@H]2CC[C@]1(C)[C@H](O)C2,DTGKSKDOIYIVQL-NQMVMOMDSA-N,-2.420558395
ethyl 4-chlorophenoxyacetate,,CCOC(=O)COc1ccc(Cl)cc1,QULRDJFRGVHKLN-UHFFFAOYSA-N,-2.4206
3-methylindole,,Cc1c[nH]c2ccccc12,ZFRKQXVRDFCRJG-UHFFFAOYSA-N,-2.4206
sodium bis(butan-2-yl) sulfanidyl(sulfanylidene)phosphonite,,[Na+].CCC(C)O[P]([S-])(=S)OC(C)CC,FVLCBQUCLOPWGZ-UHFFFAOYSA-M,-2.42214317
Zonisamide,CAS68291-97-4,NS(=O)(=O)Cc1noc2ccccc12,UBQNRHZMVUUOMG-UHFFFAOYSA-N,-2.42
hexafluoroethane,,FC(F)(F)C(F)(F)F,WMIYKQLTONQJES-UHFFFAOYSA-N,-2.423907212
"2,3,4-trichlorobut-1-ene",,ClCC(Cl)C(Cl)=C,WZUZDBPJFHQVJC-UHFFFAOYSA-N,-2.424454207
sulfathiozole,,Nc1ccc(cc1)[S](=O)(=O)Nc2sccn2,JNMRHUJNCSQMMB-UHFFFAOYSA-N,-2.4248
metacil,,CC1=CC(=O)NC(=S)N1,HWGBHCRJGXAGEU-UHFFFAOYSA-N,-2.4259
sodium 4-[(E)-2-(2-hydroxynaphthalen-1-yl)diazen-1-yl]naphthalene-1-sulfonate,,[Na+].[O-][S](=O)(=O)c1ccc(N\N=C2\C(=O)C=Cc3ccccc23)c4ccccc14,YCRBPWIFISBYGJ-QPNALZDCSA-M,-2.426393048
"benzenesulfonamide, 4-amino-n-(6-ethoxy-3-pyrid-",,CCOc1ccc(N[S](=O)(=O)c2ccc(N)cc2)nn1,FFJIWWBSBCOKLS-UHFFFAOYSA-N,-2.427
2-(butan-2-yl)cyclohexan-1-one,,CCC(C)C1CCCCC1=O,RQXTZKGDMNIWJF-UHFFFAOYSA-N,-2.427057806
isouron,,CN(C)C(=O)Nc1cc(on1)C(C)(C)C,JLLJHQLUZAKJFH-UHFFFAOYSA-N,-2.4272
"sodium 2,5-dichloro-4-[4-[[2-[(ethylphenylamino)sulphonyl]phenyl]azo]-4,5-dihydro-3-methyl-5-oxo-1H-pyrazol-1-yl]benzenesulphonate",,[Na+].CC1=NN(C(=O)C1N=Nc2cccc(c2)[S](=O)(=O)NCCc3ccccc3)c4cc(Cl)c(cc4Cl)[S]([O-])(=O)=O,MOBJCMJALNXKIW-UHFFFAOYSA-M,-2.429980995
oxycarboxin,,CC1=C(C(=O)NC2=CC=CC=C2)[S](=O)(=O)CCO1,AMEKQAFGQBKLKX-UHFFFAOYSA-N,-2.43
8-aminopurine,,NC1=NC2=C([NH]1)N=CN=C2,IKZRFGGARFKJOA-UHFFFAOYSA-N,-2.43
4-[(ethoxycarbonyloxy)methoxy]acetanilide,,CCOC(=O)OCOC1=CC=C(NC(C)=O)C=C1,BPRBJIUXTLFJML-UHFFFAOYSA-N,-2.43
"spiro[5,6-dihydroimidazo[2,3-b][3]benzazepine-11,4'-piperidine]-3-carboxamide",,NC(=O)C1=CN=C2N1CCC1=C(C=CC=C1)C21CCNCC1,VQWGYPVNVICKFC-UHFFFAOYSA-N,-2.43
"butanedioic acid, 2,2-diphenyl-",,OC(=O)CC(C(O)=O)(c1ccccc1)c2ccccc2,LVVXLDUCGFTWHJ-UHFFFAOYSA-N,-2.4318
"propane, 1-bromo-2-methyl-",,CC(C)CBr,HLVFKOKELQSXIQ-UHFFFAOYSA-N,-2.432
"benzenamine, 4,4'-(1,2-ethynediyl)bis-",,Nc1ccc(cc1)C#Cc2ccc(N)cc2,WAUKJWLKPXRNKT-UHFFFAOYSA-N,-2.4326
"2,4-dimethyl-4-phenyltetrahydrofuran",,CC1CC(C)(CO1)c2ccccc2,GPMLJOOQCIHFET-UHFFFAOYSA-N,-2.433237945
trans-cinnamic acid,,OC(=O)\C=C\c1ccccc1,WBYWAXJHAXSJNI-VOTSOKGWSA-N,-2.4335
"2,4,6-cycloheptatrien-1-one, 3-bromo-2-hydroxy-",,OC1=C(Br)C=CC=CC1=O,ZWZVMMDEDBKUEC-UHFFFAOYSA-N,-2.4352
"2-propanol, 1-chloro-, phosphate (3:1)",,CC(CCl)O[P](=O)(OC(C)CCl)OC(C)CCl,KVMPUXDNESXNOH-UHFFFAOYSA-N,-2.4361
"1,1,2,2,3,3,4-heptafluorocyclopentane",,FC1CC(F)(F)C(F)(F)C1(F)F,IDBYQQQHBYGLEQ-UHFFFAOYSA-N,-2.436880918
"1,2-benzenedicarboxamide",,NC(=O)c1ccccc1C(N)=O,NAYYNDKKHOIIOD-UHFFFAOYSA-N,-2.4371
Prazosin,CAS19216-56-9,COc1cc2nc(N3CCN(C(=O)c4ccco4)CC3)nc(N)c2cc1OC.Cl,WFXFYZULCQKPIP-UHFFFAOYSA-N,-2.44
phenyl  5-fluorouracil-1-carboxylate;  1-phenyloxycarbonyl-5-fluorouracil,,FC1=CN(C(=O)NC1=O)C(=O)OC2=CC=CC=C2,HPLGRDDPZODNAW-UHFFFAOYSA-N,-2.44
naproxen 1-(2-aminoacetoxy)ethyl ester,,COC1=CC=C2C=C(C=CC2=C1)C(C)C(=O)OC(C)OC(=O)CN,WVZTUUIUEUVJGM-UHFFFAOYSA-N,-2.44
"5-(4-chlorobenzenesulfonylimido)-4-methyl-2-sulfonamido-delta2-1,3,4-thiadiazoline",,CN1N=C(SC1=N[S](=O)(=O)C2=CC=C(Cl)C=C2)[S](N)(=O)=O,SYUHFMCJTDEIBB-UHFFFAOYSA-N,-2.44
"Dinitric acid 1,4-pentanediyl",,CC(CCCO[N+](=O)O)O[N+](=O)O,WDEVEOPCADGSIO-UHFFFAOYSA-N,-2.44
acetazolamide,,S(=O)(=O)(N)c1sc(NC(=O)C)nn1,BZKPWHYZMXOIDC-UHFFFAOYSA-N,-2.44
"guanidine, 2-benzothiazolyl-",,NC(N)=Nc1sc2ccccc2n1,QMHWARSFUCGBJK-UHFFFAOYSA-N,-2.4412
terbufos sulfoxide,,CCO[P](=S)(OCC)SC[S](=O)C(C)(C)C,KKOYBOFPUBHPFO-UHFFFAOYSA-N,-2.4421
"benzoic acid, 3-formyl-2-hydroxy-",,OC(=O)c1cccc(C=O)c1O,YOEUNKPREOJHBW-UHFFFAOYSA-N,-2.4423
o-methylphenoxyacetic acid,,Cc1ccccc1OCC(O)=O,QJVXBRUGKLCUMY-UHFFFAOYSA-N,-2.4424
"2,4,5-trichlorobenzoic acid",,OC(=O)c1cc(Cl)c(Cl)cc1Cl,PTFNNDHASFGWFI-UHFFFAOYSA-N,-2.4446
"1,1-dichlorofluoroethane",,CC(F)(Cl)Cl,FRCHKSNAZZFGCA-UHFFFAOYSA-N,-2.4448
Olmesartan Medoxomil,CAS144689-63-4,CCCc1nc(C(C)(C)O)c(C(=O)OCc2oc(=O)oc2C)n1Cc1ccc(-c2ccccc2-c2nnn[nH]2)cc1,UQGKUQLKSCSZGY-UHFFFAOYSA-N,-2.45
"4(1h)-pyrimidinone, 2,3-dihydro-5-methyl-2-thiox",,CC1=CNC(=S)NC1=O,ZLAQATDNGLKIEV-UHFFFAOYSA-N,-2.4461
"3,4-dichloroaniline",,Nc1ccc(Cl)c(Cl)c1,SDYWXFYBZPNOFX-UHFFFAOYSA-N,-2.446137954
"1(2h)-pyrimidinecarboxamide, n-butyl-5-fluoro-3,",,CCCCNC(=O)N1C=C(F)C(=O)NC1=O,PVSNDBKXSKXPHM-UHFFFAOYSA-N,-2.4464
"2,6-dimethylhept-5-enal",,CC(CCC=C(C)C)C=O,YGFGZTXGYTUXBA-UHFFFAOYSA-N,-2.447858542
chlorobenzene,,Clc1ccccc1,MVPPADPHJFYWMZ-UHFFFAOYSA-N,-2.449320235
4-hydroxy-3-methoxy-5-nitrobenzaldehyde,,COc1cc(C=O)cc(c1O)[N+]([O-])=O,ZEHYRTJBFMZHCY-UHFFFAOYSA-N,-2.44968993
3-(phenoxycarboxymethyl)-5-fluorouracil; 3-(phenoxycarbonyloxymethyl)-5-fluorouracil,,FC1=CNC(=O)N(COC(=O)OC2=CC=CC=C2)C1=O,SJJLAYXHDHWNSV-UHFFFAOYSA-N,-2.45
"5-(3-aminobenzenesulfonylimido)-4-methyl-delta2-1,3,4-thiadiazoline-2-sulfonamide",,CN1N=C(SC1=N[S](=O)(=O)C2=CC=CC(=C2)N)[S](N)(=O)=O,KVTLULGYZIGEGB-UHFFFAOYSA-N,-2.45
"2-phenyl-5-(2-phenyl-1,3-dioxolan-4-yl)-1,3-dioxolane-4-carboxylic acid",,O=C(O)C1OC(C2=CC=CC=C2)OC1C1COC(C2=CC=CC=C2)O1,CTMCUPGWMZDNHP-UHFFFAOYSA-N,-2.45
Benidipine,CAS105979-17-7,COC(=O)C1=C(C)NC(C)=C(C(=O)O[C@@H]2CCCN(Cc3ccccc3)C2)[C@@H]1c1cccc([N+](=O)[O-])c1,QZVNQOLPLYWLHQ-ZEQKJWHPSA-N,-2.45
acetyl benzoyl peroxide,,CC(=O)OOC(=O)c1ccccc1,PDAVOLCVHOKLEO-UHFFFAOYSA-N,-2.4502
n-hexyl acetate,,CCCCCCOC(C)=O,AOGQPLXWSUTHQB-UHFFFAOYSA-N,-2.451
"(2,4,6-trioxo-1,3,5-triazine-1,3,5(2H,4H,6H)-triyl)tri-2,1-ethanediyl triacrylate",,C=CC(=O)OCCN1C(=O)N(CCOC(=O)C=C)C(=O)N(CCOC(=O)C=C)C1=O,YIJYFLXQHDOQGW-UHFFFAOYSA-N,-2.451419462
Risocaine,,CCCOC(=O)c1ccc(N)cc1,NBFQYHKHPBMJJV-UHFFFAOYSA-N,-2.452
3-pentyl nitrate,,CCC(CC)O[N+]([O-])=O,WQZKKVJFBZPJSU-UHFFFAOYSA-N,-2.4522
"2-butyl-4,4,6-trimethyl-1,3-dioxane",,CCCCC1OC(C)CC(C)(C)O1,QUBNQDBPPTZYJL-UHFFFAOYSA-N,-2.45329736
"2,6-dimethylheptan-4-one",,CC(C)CC(=O)CC(C)C,PTTPXKJBFFKCEK-UHFFFAOYSA-N,-2.454057846
"(3E)-penta-1,3-diene; (3Z)-penta-1,3-diene; cyclopentene",,C\C=C/C=C.C/C=C/C=C.C1CC=CC1,UEGXXVLLCWTKGN-GIHNHNQOSA-N,-2.454265074
4-ethoxybenzoic acid,,CCOc1ccc(cc1)C(O)=O,SHSGDXCJYVZFTP-UHFFFAOYSA-N,-2.454899746
n-decylamine,,CCCCCCCCCCN,MHZGKXUYDGKKIU-UHFFFAOYSA-N,-2.4564
"malonamide, 2,2-dihydroxy-n,n'diphenyl-",,OC(O)(C(=O)Nc1ccccc1)C(=O)Nc2ccccc2,LBGDJUYHCRTMQV-UHFFFAOYSA-N,-2.4568
p-methoxybenzoic acid,,COc1ccc(cc1)C(O)=O,ZEYHEAKUIGZSGI-UHFFFAOYSA-N,-2.458
"barbituric acid,5-me-5-phenyl-",,CC1(C(=O)NC(=O)NC1=O)c2ccccc2,LSAOZCAKUIANSQ-UHFFFAOYSA-N,-2.4581
imazamethabenz (isomer mix),,COC(=O)c1ccc(C)cc1C2=NC(C)(C(C)C)C(=O)N2,FFCCBBNQPIMUJI-UHFFFAOYSA-N,-2.4599
isocarboxazid;  1-benzyl-2-(5-methyl-3-isoxazolylcarbonyl)hydrazine,,CC1=CC(=NO1)C(=O)NNCC2=CC=CC=C2,XKFPYPQQHFEXRZ-UHFFFAOYSA-N,-2.46
"2-ethyl-1,4-dimethyl-1,2,3,4-tetrahydro-2,4a,9-triazaanthracen-10-one",,CCN1CC(C)N2C(=O)C3=C(C=CC=C3)N=C2C1C,LCXJKYZWJXSRIT-UHFFFAOYSA-N,-2.46
5'-propanoylidoxuridine; 5'-propanoyl-5-iodo-2'-deoxyuridine; 5'-propanoyl-idu,,CCC(=O)OCC1OC(CC1O)N2C=C(I)C(=O)NC2=O,DJVMRHACLIROPJ-UHFFFAOYSA-N,-2.46
2-[(~{Z})-(2-hydroxynaphthalen-1-yl)methylideneamino]guanidine,,N=C(N)NN=CC1=C2C=CC=CC2=CC=C1O,DCIDDLVSNSCTHE-UHFFFAOYSA-N,-2.46
2-Ethyl-2-hexanal,,CCCC=C(CC)C=O,PYLMCYQHBRSDND-UHFFFAOYSA-N,-2.46
m-Nitrotoluene  ,,CC1=CC(=CC=C1)[N+](=O)[O-],QZYHIOPPLUPUJF-UHFFFAOYSA-N,-2.46
"calcium diethyl bis[[[3,5-bis(1,1-dimethylethyl)-4-hydroxyphenyl]methyl]phosphonate]",,[Ca++].CCO[P]([O-])(=O)Cc1cc(c(O)c(c1)C(C)(C)C)C(C)(C)C.CCO[P]([O-])(=O)Cc2cc(c(O)c(c2)C(C)(C)C)C(C)(C)C,SJEZDMHBMZPMME-UHFFFAOYSA-L,-2.46167357
o-chloroanisole,,COc1ccccc1Cl,QGRPVMLBTFGQDQ-UHFFFAOYSA-N,-2.4639
"2,6,6-trimethylcyclohexa-1,3-diene-1-carbaldehyde",,CC1=C(C=O)C(C)(C)CC=C1,SGAWOGXMMPSZPB-UHFFFAOYSA-N,-2.465007757
5-phenylpentanoic acid,,OC(=O)CCCCc1ccccc1,BYHDDXPKOZIZRV-UHFFFAOYSA-N,-2.4657
2-(4-chloro-2-methylphenoxy)propanoic acid,,CC(Oc1ccc(Cl)cc1C)C(O)=O,WNTGYJSOUMFZEP-UHFFFAOYSA-N,-2.466030786
"phenol, 2-iodo-4-methyl-",,Cc1ccc(O)c(I)c1,JITSLEIKSRKKCZ-UHFFFAOYSA-N,-2.4662
sodium 3-[(E)-2-[5-(diethylsulfamoyl)-2-methoxyphenyl]diazen-1-yl]-4-hydroxynaphthalene-1-sulfonate,,[Na+].CCN(CC)[S](=O)(=O)c1ccc(OC)c(N\N=C\2C=C(c3ccccc3C2=O)[S]([O-])(=O)=O)c1,AGXNLHROVWJXBE-XHMOQMQQSA-M,-2.466753911
"butanoic acid, pentyl ester",,CCCCCOC(=O)CCC,CFNJLPHOBMVMNS-UHFFFAOYSA-N,-2.467
"3-amino-2,5-dichlorobenzoic acid",,Nc1cc(Cl)cc(C(O)=O)c1Cl,HSSBORCLYSCBJR-UHFFFAOYSA-N,-2.4688
"1,3,5-tris[[(2R)-oxiran-2-yl]methyl]-1,3,5-triazinane-2,4,6-trione",,O=C1N(C[C@@H]2CO2)C(=O)N(C[C@@H]3CO3)C(=O)N1C[C@@H]4CO4,OUPZKGBUJRBPGC-IWSPIJDZSA-N,-2.468825327
N-[3-(diethylamino)phenyl]acetamide,,CCN(CC)c1cccc(NC(C)=O)c1,FPUKYOSOAAPHTN-UHFFFAOYSA-N,-2.469378031
prostaglandin e2;  dinoprostone,,CCCCCC(O)/C=C/C1C(O)CC(=O)C1C\C=C\CCCC(O)=O,XEYBRNLFEZDVAW-RTYMFESYSA-N,-2.47
monolinuron;  3-(4-chlorophenyl)-1-methoxy-1-methylurea,,CON(C)C(=O)NC1=CC=C(Cl)C=C1,LKJPSUCKSLORMF-UHFFFAOYSA-N,-2.47
azamethiphos,,CO[P](=O)(OC)SCN1C(=O)OC2=CC(=CN=C12)Cl,VNKBTWQZTQIWDV-UHFFFAOYSA-N,-2.47
"1-[5-(2-chloro-1,1-dimethylethyl)-[1,3,4]thiadiazol-2-yl]-1,3-dimethylurea",,CNC(=O)N(C)C1=NN=C(S1)C(C)(C)CCl,IYKPHPWPBFMVHA-UHFFFAOYSA-N,-2.47
n-isonicotinoyl-n'-(phenylacetyl)hydrazine,,O=C(CC1=CC=CC=C1)NNC(=O)C2=CC=NC=C2,FCRSOBDFPFGDHL-UHFFFAOYSA-N,-2.47
"acyclovir ester iii,  o-[(4-dimethylaminomethyl)benzoyl]acyclovir",,CN(C)CC1=CC=C(C=C1)C(=O)OCCOC[N]2C=NC3=C2N=C(N)NC3=O,WNZOPNWEGQVFCY-UHFFFAOYSA-N,-2.47
"5-(4-chloro-3-nitrobenzenesulfonyl-imido)-4-methyl-2-sulfonamido-delta2-1,3,4-thiadiazoline",,CN1N=C(SC1=N[S](=O)(=O)C2=CC(=C(Cl)C=C2)[N+]([O-])=O)[S](N)(=O)=O,UFQSGSXDRVNGIM-UHFFFAOYSA-N,-2.47
prostaglandin_E2,,CCCCCC(O)C=CC1C(O)CC(=O)C1CC=CCCCC(=O)O,XEYBRNLFEZDVAW-UHFFFAOYSA-N,-2.47
"5-amino-2-phenyl-4~{H}-1,2,4-triazol-3-one",,NC1=NC(=O)N(C2=CC=CC=C2)N1,UEWQTRNYJJIPSF-UHFFFAOYSA-N,-2.47
tebutam,,CC(C)N(Cc1ccccc1)C(=O)C(C)(C)C,RJKCKKDSSSRYCB-UHFFFAOYSA-N,-2.4704
Talinolol,PubChemCID68770,CC(C)(C)NCC(COC1=CC=C(C=C1)NC(=O)NC2CCCCC2)O,MXFWWQICDIZSOA-UHFFFAOYSA-N,-2.47
2-nitro-4-(trifluoromethyl)benzonitrile,,[O-][N+](=O)c1cc(ccc1C#N)C(F)(F)F,BQCWLXXZTCLGSZ-UHFFFAOYSA-N,-2.470773563
"N,N-dipropylpropan-1-amine",,CCCN(CCC)CCC,YFTHZRPMJXBUME-UHFFFAOYSA-N,-2.472220255
Nelarabine,CAS121032-29-9,COc1nc(N)nc2c1ncn2[C@@H]1O[C@H](CO)[C@@H](O)[C@@H]1O,IXOXBSCIXZEQEQ-UHTZMRCNSA-N,-2.47
(4-methoxyphenyl)methyl acetate,,COc1ccc(COC(C)=O)cc1,HFNGYHHRRMSKEU-UHFFFAOYSA-N,-2.474006642
(2E)-2-methyl-3-phenylprop-2-enal,,C/C(C=O)=C/c1ccccc1,VLUMOWNVWOXZAU-CLFYSBASSA-N,-2.474718615
"6,6-dimethylheptanoic acid",,CC(C)(C)CCCCC(O)=O,AAOISIQFPPAFQO-UHFFFAOYSA-N,-2.475043149
"hexanedioic acid, 2,5-dimercapto-",,OC(=O)C(S)CCC(S)C(O)=O,SUVZGLSQFGNBQI-UHFFFAOYSA-N,-2.4758
"decane-1,2-diol",,CCCCCCCCC(O)CO,YSRSBDQINUMTIF-UHFFFAOYSA-N,-2.478578955
methyl 2-(4-bromobenzenesulfonyl)acetate;  2-(4-bromobenzenesulfonyl)acetic acid methyl ester,,COC(=O)C[S](=O)(=O)C1=CC=C(Br)C=C1,CNEVNTZDQZVZGP-UHFFFAOYSA-N,-2.48
"3-(1-aziridinyl)-4,6-dinitro-(n,n-dimethyl)benzamide",,CN(C)C(=O)C1=CC(=C(C=C1[N+]([O-])=O)[N+]([O-])=O)N2CC2,JORNJVDPZHKPNJ-UHFFFAOYSA-N,-2.48
"n1,n1,n4-trimethyl-n4-propanoylsulfanilamide",,CCC(=O)N(C)C1=CC=C(C=C1)[S](=O)(=O)N(C)C,ZCPRMRBJNJMHRJ-UHFFFAOYSA-N,-2.48
4-[(1-methyl-2-methoxy)ethoxy]carboxyacetanilide; 4-[(2-methoxy-1-methylethyloxy)carbonyloxy]acetanilide,,COCC(C)OC(=O)OC1=CC=C(NC(C)=O)C=C1,DRVLSPUGFXRFLW-UHFFFAOYSA-N,-2.48
"2-sulfamoyl-4-methyl-5-benzylsulfonylimido-1,3,4-thiadiazoline; 5-benzylsulfonylimido-4-methyl-delta2-1,3,4-thiadiazoline-2-sulfonamide",,CN1N=C(SC1=N[S](=O)(=O)CC2=CC=CC=C2)[S](N)(=O)=O,CEOILGDNBOGUIQ-UHFFFAOYSA-N,-2.48
cinnamic_acid,,O=C(O)C=Cc(cccc1)c1,WBYWAXJHAXSJNI-UHFFFAOYSA-N,-2.48
1-(trifluoromethyl)acridin-9-amine,,NC1=C2C=CC=CC2=NC2=CC=CC(C(F)(F)F)=C21,GAWKHTAHYFTCHE-UHFFFAOYSA-N,-2.48
N'-Isopropylidene-1H-benzo[de]isoquinoline-2(3H)-carboximidohydrazide,,CC(C)=NNC(=N)N1CC2=CC=CC3=CC=CC(=C32)C1,PHUCWJVDEMOZOK-UHFFFAOYSA-N,-2.48
4-chloro-N-(4-chlorophenyl)sulfonylbenzenesulfonamide,,O=S(=O)(NS(=O)(=O)C1=CC=C(Cl)C=C1)C1=CC=C(Cl)C=C1,ISLGMFCNZJGDTA-UHFFFAOYSA-N,-2.48
propachlor,,CC(C)N(C(=O)CCl)c1ccccc1,MFOUDYKPLGXPGO-UHFFFAOYSA-N,-2.4806
"1-butanol, 3-methyl-, nitrate",,CC(C)CCO[N+]([O-])=O,NTHGIYFSMNNHSC-UHFFFAOYSA-N,-2.4809
isopentyl nitrate,,CCCC(C)O[N+]([O-])=O,RWRBSYOTDDOXKC-UHFFFAOYSA-N,-2.4809
"1(3h)-isobenzofuranone, 6-chloro-",,Clc1ccc2COC(=O)c2c1,NUAVXUHBPNMQEV-UHFFFAOYSA-N,-2.4817
fenpropimorph,,CC(CN1CC(C)OC(C)C1)Cc2ccc(cc2)C(C)(C)C,RYAUSSKQMZRMAI-UHFFFAOYSA-N,-2.4821
1-[3-(trifluoromethyl)phenyl]ethan-1-one,,CC(=O)c1cccc(c1)C(F)(F)F,ABXGMGUHGLQMAW-UHFFFAOYSA-N,-2.482107917
Clofarabine,CAS123318-82-1,Nc1nc(Cl)nc2c1ncn2[C@@H]1O[C@H](CO)[C@@H](O)[C@@H]1F,WDDPHFBMKLOVOX-AYQXTPAHSA-N,-2.48
"Benzoic acid, 2-hydroxy-5-[[4-[[4-[[8-hydroxy-7-[[4-[(8-hydroxy-3,6-disulfo-1-naphthalenyl)azo]-2-methoxy-5-methylphenyl]azo]-3,6-disulfo-1-naphthalenyl]amino]-6-(phenylamino)-1,3,5-triazin-2-yl]amino]phenyl]azo]-, pentasodium salt",,[Na+].[Na+].[Na+].[Na+].[Na+].COc1cc(N=Nc2cc(cc3cc(cc(O)c23)[S]([O-])(=O)=O)[S]([O-])(=O)=O)c(C)cc1N=Nc4c(O)c5c(Nc6nc(Nc7ccccc7)nc(Nc8ccc(cc8)N=Nc9ccc(O)c(c9)C([O-])=O)n6)cc(cc5cc4[S]([O-])(=O)=O)[S]([O-])(=O)=O,HTPJPKXFBLUBPI-UHFFFAOYSA-I,-2.483387966
1(2h)-isoquinolinone,,O=C1NC=Cc2ccccc12,VDBNYAPERZTOOF-UHFFFAOYSA-N,-2.4842
terbacil,,CC1=C(Cl)C(=O)N(C(=O)N1)C(C)(C)C,NBQCNZYJJMBDKY-UHFFFAOYSA-N,-2.4845
m-nitroanisole,,COc1cccc(c1)[N+]([O-])=O,WGYFINWERLNPHR-UHFFFAOYSA-N,-2.4861
"2-amino-4,6-dinitrophenol",,Nc1cc(cc(c1O)[N+]([O-])=O)[N+]([O-])=O,QXYMVUZOGFVPGH-UHFFFAOYSA-N,-2.4862
tert-butyl methacrylate,,CC(=C)C(=O)OC(C)(C)C,SJMYWORNLPSJQO-UHFFFAOYSA-N,-2.486375508
7-methyl-1-octanol,,CC(C)CCCCCCO,QDTDKYHPHANITQ-UHFFFAOYSA-N,-2.487
5-methyl-2-(propan-2-yl)cyclohexan-1-ol,,CC(C)C1CCC(C)CC1O,NOOLISFMXDJSKH-UHFFFAOYSA-N,-2.488009121
"propanoic acid, 2-hydroxy-, 2-(hexyloxy)-1-methy",,CCCCCCOC(=O)C(C)OC(=O)C(C)O,GVMIXAYWPARWDD-UHFFFAOYSA-N,-2.4884
ethyl 2-methylpentanoate,,CCCC(C)C(=O)OCC,HZPKNSYIDSNZKW-UHFFFAOYSA-N,-2.489690542
"phthalic acid, 3-nitro-, 2-isopropyl ester",,CC(C)OC(=O)c1c(cccc1[N+]([O-])=O)C([O-])=O,VLYOOXLMUKHFNY-UHFFFAOYSA-M,-2.4897
"xylylcarb;  3,4-xylyl methylcarbamate;  3,4-dimethylphenyl methylcarbamate",,CNC(=O)OC1=CC(=C(C)C=C1)C,WCJYTPVNMWIZCG-UHFFFAOYSA-N,-2.49
acetoxymethyl  nalidixate;  nalidixic acid acetoxymethyl ester,,CCN1C=C(C(=O)OCOC(C)=O)C(=O)C2=C1N=C(C)C=C2,NWWLCGROZMKOTG-UHFFFAOYSA-N,-2.49
4-ureidophenyl  acetate;  acetic acid 4-ureidophenyl ester,,CC(=O)OC1=CC=C(NC(N)=O)C=C1,RHNWGZJHWWJART-UHFFFAOYSA-N,-2.49
5-nonanol,,CCCCC(O)CCCC,FCBBRODPXVPZAH-UHFFFAOYSA-N,-2.49
l-Menthone,,O=C(C(CCC1C)C(C)C)C1,NFLGAXVYCFJBMK-UHFFFAOYSA-N,-2.49
2-amino-3-[3-(2-amino-3-hydroxy-3-oxopropyl)sulfanylpropylsulfanyl]propanoic acid,,NC(CSCCCSCC(N)C(=O)O)C(=O)O,SCEZRAOBEAEWPA-UHFFFAOYSA-N,-2.49
amicetin,,CC1OC(CCC1OC2OC(C)C(C(O)C2O)N(C)C)N3C=CC(=NC3=O)NC(=O)c4ccc(NC(=O)C(C)(N)CO)cc4,HDNVYHWHCVTDIV-UHFFFAOYSA-N,-2.4904
3-amino-2-hydroxy-5-nitrobenzoic acid,,Nc1cc(cc(C(O)=O)c1O)[N+]([O-])=O,JFTUSFFYSRNFBA-UHFFFAOYSA-N,-2.490779033
2-(2-methylbutan-2-yl)phenol,,CCC(C)(C)c1ccccc1O,BGRKGHSKCFAPCL-UHFFFAOYSA-N,-2.49122422
Demeclocycline,CAS64-73-3,CN(C)[C@@H]1C(O)=C(C(N)=O)C(=O)[C@@]2(O)C(O)=C3C(=O)c4c(O)ccc(Cl)c4[C@@H](O)[C@H]3C[C@@H]12.Cl,GVSJQNRGSCOSNJ-KBHRXELFSA-N,-2.49
"(2S,5R)-5-methyl-2-(propan-2-yl)cyclohexan-1-one",,CC(C)[C@@H]1CC[C@@H](C)CC1=O,NFLGAXVYCFJBMK-BDAKNGLRSA-N,-2.491877231
Biperiden,CAS514-65-8,OC(CCN1CCCCC1)(c1ccccc1)C1C[C@@H]2C=C[C@H]1C2,YSXKPIUOCJLQIE-BDWAOYLISA-N,-2.49
"6-phenyl-1,3,5-triazine-2,4-diamine",,Nc1nc(N)nc(n1)c2ccccc2,GZVHEAJQGPRDLQ-UHFFFAOYSA-N,-2.494168514
"1h-imidazole-4,5-dicarboxylic acid",,OC(=O)c1[nH]cnc1C(O)=O,ZEVWQFWTGHFIDH-UHFFFAOYSA-N,-2.4944
phenyl methacrylate,,CC(=C)C(=O)Oc1ccccc1,QIWKUEJZZCOPFV-UHFFFAOYSA-N,-2.494851361
2-[(Z)-octadec-9-enoxy]ethanol,,CCCCCCCC\C=C/CCCCCCCCOCCO,KWVPFECTOKLOBL-KTKRTIGZSA-N,-2.494902829
crotoxyphos,,CO[P](=O)(OC)OC(/C)=C/C(=O)OC(C)c1ccccc1,XXXSILNSXNPGKG-ZHACJKMWSA-N,-2.4973
"hydrogen peroxide - 1,2-diisopropylbenzene (1:1)",,CC(C)c1ccccc1C(C)C.OO,SPTHWAJJMLCAQF-UHFFFAOYSA-N,-2.497713585
"1,3-dinitrobenzene",,[O-][N+](=O)c1cccc(c1)[N+]([O-])=O,WDCYWAQPCXBPJA-UHFFFAOYSA-N,-2.4989
"(1Z,5Z)-cycloocta-1,5-diene; rhodium; dichloride",,[Cl].[Cl].[Rh].[Rh].C\1C\C=C/CC\C=C1.C\2C\C=C/CC\C=C2,LGARIVPRHUAOKP-MIXQCLKLSA-N,-2.499798074
"acetic acid, bis(2-carboxyphenyl)-",,OC(=O)C(c1ccccc1C(O)=O)c2ccccc2C(O)=O,AOTLXSIYOKZSAI-UHFFFAOYSA-N,-2.4998
methyl 4-acetoxybenzoate;  4-acetoxybenzoic acid methyl ester,,COC(=O)C1=CC=C(OC(C)=O)C=C1,PGJQPLVEUVHSFQ-UHFFFAOYSA-N,-2.5
ranitidine,,CNC(/NCCSCC1=CC=C(CN(C)C)O1)=C/[N+]([O-])=O,VMXUWOKSQNHOCA-LCYFTJDESA-N,-2.5
"2-ethyl-1-methyl-1,2,3,4-tetrahydro-2,4a,9-triazaanthracen-10-one; ethyl-methylpyridoquinazolone",,CCN1CCN2C(=O)C3=C(C=CC=C3)N=C2C1C,QBNMZYNBZAKUSP-UHFFFAOYSA-N,-2.5
"5-(4-aminobenzenesulfonylimido)-4-methyl-delta2-1,3,4-thiadiazoline-2-sulfonamide",,CN1N=C(SC1=N[S](=O)(=O)C2=CC=C(N)C=C2)[S](N)(=O)=O,BKCXBMXTXLGZCV-UHFFFAOYSA-N,-2.5
5-aminoquinoline-6-sulfonic acid,,NC1=C(S(=O)(=O)O)C=CC2=C1C=CC=N2,RSLYDUZZJLDOKH-UHFFFAOYSA-N,-2.5
"6-HYDROXY-1,3-BENZOTHIAZOLE-2-SULFONAMIDE",,NS(=O)(=O)C1=NC2=C(C=C(O)C=C2)S1,NOOBQTYVTDBXTL-UHFFFAOYSA-N,-2.5
"Pentane-1,2-diyldinitrate",,CCCC(CO[N+](=O)O)O[N+](=O)O,ZYWRFMURTYPAFJ-UHFFFAOYSA-N,-2.5
"piperidine, 1-[(benzoyloxy)acetyl]-",,O=C(COC(=O)c1ccccc1)N2CCCCC2,BCNWJNNKUUMDHS-UHFFFAOYSA-N,-2.5011
2-methyl-4-chlorophenoxyacetic acid,,Cc1cc(Cl)ccc1OCC(O)=O,WHKUVVPPKQRRBV-UHFFFAOYSA-N,-2.503
4-trifluoromethyl-2-nitrophenol,,Oc1ccc(cc1[N+]([O-])=O)C(F)(F)F,XZEDEVRSUANQEM-UHFFFAOYSA-N,-2.503
indium(3+) ion trinitrate,,O.[In+3].[O-][N+]([O-])=O.[O-][N+]([O-])=O.[O-][N](=O)=O,YZZFBYAKINKKFM-UHFFFAOYSA-N,-2.503579611
7-quinolinol,,[O-]c1ccc2ccc[nH+]c2c1,XCRPPAPDRUBKRJ-UHFFFAOYSA-N,-2.5038
bromacil,,CCC(C)N1C(=O)NC(=C(Br)C1=O)C,CTSLUCNDVMMDHG-UHFFFAOYSA-N,-2.5057
2-phenylphenol,,Oc1ccccc1c2ccccc2,LLEMOWNGBBNAJR-UHFFFAOYSA-N,-2.506711754
"zinc O,O,O',O'-tetrabutyl bis(phosphorodithioate)",,[Zn++].CCCCO[P]([S-])(=S)OCCCC.CCCCO[P]([S-])(=S)OCCCC,MECFLMNXIXDIOF-UHFFFAOYSA-L,-2.50838394
"o-ethyl s,s-dipropyl phosphorodithioate",,CCCS[P](=O)(OCC)SCCC,VJYFKVYYMZPMAB-UHFFFAOYSA-N,-2.5094
5-ethyl-5-pentylbarbituric acid;  5-amyl-5-ethylbarbituric  acid,,CCCCCC1(CC)C(=O)NC(=O)NC1=O,XYGXSCVUMIDZRR-UHFFFAOYSA-N,-2.51