Name,ID,SMILES,inchi,LogS
potassium 4-(acetoacetylamino)benzenesulfonate,,[K+].CC(=O)CC(=O)Nc1ccc(cc1)[S]([O-])(=O)=O,FNLKZYBTJKUMQM-UHFFFAOYSA-M,0.421747335
tetrasodium (1-hydroxy-1-phosphonatoethyl)phosphonate,,[Na+].[Na+].[Na+].[Na+].CC(O)([P]([O-])([O-])=O)[P]([O-])([O-])=O,KWXLCDNSEHTOCB-UHFFFAOYSA-J,0.420460109
1-methylpyridinium chloride,,[Cl-].C[n+]1ccccc1,QAIGYXWRIHZZAA-UHFFFAOYSA-M,0.420182889
n-(dimethylaminomethyl)benzamide,,CN(C)CNC(=O)C1=CC=CC=C1,VEROGXNNWXHGRF-UHFFFAOYSA-N,0.42
1-[bis(2-hydroxypropyl)amino]propan-2-ol,,CC(O)CN(CC(C)O)CC(C)O,SLINHMUFWFWBMU-UHFFFAOYSA-N,0.417320876
sodium (dimethylcarbamothioyl)sulfanide,,[Na+].CN(C)C([S-])=S,VMSRVIHUFHQIAL-UHFFFAOYSA-M,0.416892192
9-methyl-9-azabicyclo[3.3.1]nonan-3-one,,CN1C2CCCC1CC(=O)C2,RHWSKVCZXBAWLZ-UHFFFAOYSA-N,0.4167
Ticarcillin,CAS34787-01-4,CC1(C)S[C@@H]2[C@H](NC(=O)[C@H](C(=O)O)c3ccsc3)C(=O)N2[C@H]1C(=O)O,OHKOGUYZJXTSFX-KZFFXBSXSA-N,0.42
tetrabutylphosphonium bromide,,[Br-].CCCC[P+](CCCC)(CCCC)CCCC,RKHXQBLJXBGEKF-UHFFFAOYSA-M,0.41483097
"1,3-diaminourea",,NNC(=O)NN,XEVRDFDBXJMZFG-UHFFFAOYSA-N,0.414558554
"hexanediamide, n,n'-bis(2-hydroxyethyl)-",,OCCNC(=O)CCCCC(=O)NCCO,OSGRUAAPIRXZTJ-UHFFFAOYSA-N,0.4121
(2E)-but-2-enal,,C\C=C/C=O,MLUCVPSAIODCQM-IHWYPQMZSA-N,0.412016319
caesium(1+) ion iodide,,[I-].[Cs+],XQPRBTXUXXVTKB-UHFFFAOYSA-M,0.411226108
piperazine hydrochloride,,[H+].[H+].[Cl-].[Cl-].C1CNCCN1,CVVIJWRCGSYCMB-UHFFFAOYSA-N,0.4112
"disodium 2,3-dihydroxybutanedioate",,[Na+].[Na+].OC(C(O)C([O-])=O)C([O-])=O,HELHAJAZNSDZJO-UHFFFAOYSA-L,0.411056357
"3-[3-(hydroxymethyl)-2,5-dioxoimidazolidin-4-yl]-1-[({[3-(hydroxymethyl)-2,5-dioxoimidazolidin-4-yl]carbamoyl}amino)methyl]urea",,OCN1C(NC(=O)NCNC(=O)NC2N(CO)C(=O)NC2=O)C(=O)NC1=O,ZCTXEAQXZGPWFG-UHFFFAOYSA-N,0.410835965
"1,3-dioxepane",,C1CCOCOC1,CZLMRJZAHXYRIX-UHFFFAOYSA-N,0.41078966
sodium 3-[(2-carboxyethyl)(2-ethylhexyl)amino]propanoate,,[Na+].CCCCC(CC)CN(CCC(O)=O)CCC([O-])=O,WVQFKDGIJVWORA-UHFFFAOYSA-M,0.410469265
manganese bis(dihydrogen phosphate),,[Mn++].[O-][P]([O-])([O-])=O.[O-][P]([O-])([O-])=O,NAAXGLXYRDSIRS-UHFFFAOYSA-H,0.41039078
"d-glucitol, 1-deoxy-1-(methylamino)-",,CNCC(O)C(O)C(O)C(O)CO,MBBZMMPHUWSWHV-UHFFFAOYSA-N,0.4084
"phosphoric acid, diethyl propyl ester",,CCCO[P](=O)(OCC)OCC,IHPUVAUZMHQZSK-UHFFFAOYSA-N,0.4063
"(2R,3R,4R,5S)-2-(hydroxymethyl)piperidine-3,4,5-triol",,OC[C@H]1NC[C@H](O)[C@@H](O)[C@@H]1O,LXBIFEVIBLOUGU-JGWLITMVSA-N,0.404352043
"sodium 5-butyl-1H-1,2,3-benzotriazol-1-ide",,[Na+].CCCCc1ccc2[n-]nnc2c1,GNLXYXCOPZDOPO-UHFFFAOYSA-N,0.404025656
hydrogen sulfate; tetrakis(hydroxymethyl)phosphanium; urea,,NC(N)=O.OC[P+](CO)(CO)CO.O[S]([O-])(=O)=O,UMQVFBAWZJWILK-UHFFFAOYSA-M,0.403692118
ethyl methanesulfonate,,CCO[S](C)(=O)=O,PLUBXMRUUVWRLT-UHFFFAOYSA-N,0.402
clofencet,,CCC1=C(C(O)=O)C(=O)C=NN1c2ccc(Cl)cc2,PIZCXVUFSNPNON-UHFFFAOYSA-N,0.4
bis(pyridin-1-ium) [(oxidodioxochromio)oxy]chromiumoylolate,,O[Cr](=O)(=O)O[Cr](O)(=O)=O.c1ccncc1.c2ccncc2,RCBVKBFIWMOMHF-UHFFFAOYSA-L,0.399087129
potassium sodium tartrate,,[Na+].[K+].O[C@H]([C@@H](O)C([O-])=O)C([O-])=O,LJCNRYVRMXRIQR-OLXYHTOASA-L,0.3984
bis(amino(imino)methanaminium) carbonate,,NC(N)=N.NC(N)=N.OC(O)=O,STIAPHVBRDNOAJ-UHFFFAOYSA-N,0.397534856
3-acetyloxolan-2-one,,CC(=O)C1CCOC1=O,OMQHDIHZSDEIFH-UHFFFAOYSA-N,0.397509321
"2,3-dimethyloxirane",,CC1OC1C,PQXKWPLDPFFDJP-UHFFFAOYSA-N,0.397295078
cadmium dichloride,,[Cl-].[Cl-].[Cd++],YKYOUMDCQGMQQO-UHFFFAOYSA-L,0.39671109
trisodium 2-[bis(carboxylatomethyl)amino]acetate,,[Na+].[Na+].[Na+].[O-]C(=O)CN(CC([O-])=O)CC([O-])=O,DZCAZXAJPZCSCU-UHFFFAOYSA-K,0.396103236
"(2R)-2,4-dihydroxy-N-(3-hydroxypropyl)-3,3-dimethylbutanamide",,CC(C)(CO)[C@@H](O)C(=O)NCCCO,SNPLKNRPJHDVJA-ZETCQYMHSA-N,0.394426153
tris(2-hydroxyethyl)methylammonium methyl sulphate,,CO[S]([O-])(=O)=O.C[N+](CCO)(CCO)CCO,WLTHPEHYBIKNHR-UHFFFAOYSA-M,0.39266642
"phosphinic acid, di-4-morpholinyl-, phenyl ester",,O=[P](Oc1ccccc1)(N2CCOCC2)N3CCOCC3,ARRSANOSOGNTIJ-UHFFFAOYSA-N,0.3925
dilithium(1+) ion sulfate,,[Li+].[Li+].[O-][S]([O-])(=O)=O,INHCSSUBVCNVSK-UHFFFAOYSA-L,0.392124281
sodium hydrogen 2-aminopentanedioate,,[Na+].NC(CCC(O)=O)C([O-])=O,LPUQAYUQRXPFSQ-UHFFFAOYSA-M,0.391961629
lithium(1+) ion benzoate,,[Li+].[O-]C(=O)c1ccccc1,LDJNSLOKTFFLSL-UHFFFAOYSA-M,0.390910622
"4-hydroxy-2,5-dimethyl-2,3-dihydrofuran-3-one",,CC1OC(=C(O)C1=O)C,INAXVXBDKKUCGI-UHFFFAOYSA-N,0.390669896
pyridoxal hydrochloride,,[H+].[Cl-].Cc1ncc(CO)c(C=O)c1O,FCHXJFJNDJXENQ-UHFFFAOYSA-N,0.3901
succinimide,,O=C1CCC(=O)N1,KZNICNPSHKQLFF-UHFFFAOYSA-N,0.39
2-methyl-4-oxo-4-(phenylamino)butanoic acid,,CC(CC(=O)NC1=CC=CC=C1)C(=O)O,WOTSYQVYXBEKOX-UHFFFAOYSA-N,0.39
oxolan-2-ylmethanol,,OCC1CCCO1,BSYVTEYKTMYBMK-UHFFFAOYSA-N,0.38877392
2-butanol,,CCC(C)O,BTANRVKWQNVYAZ-UHFFFAOYSA-N,0.3877
piperidine-4-carboxylic acid hydrochloride,,[H+].[Cl-].OC(=O)C1CCNCC1,NVUYWKBRSRPYMH-UHFFFAOYSA-N,0.384031592
iso-oxazole,,o1cccn1,CTAPFRYPJLPFDF-UHFFFAOYSA-N,0.3827
"6-methoxy-2-N-methylpyridine-2,3-diamine dihydrochloride",,[H+].[H+].[Cl-].[Cl-].CNc1nc(OC)ccc1N,GYLCRBBRGGGHBS-UHFFFAOYSA-N,0.381923091
sodium 4-(methoxycarbonyl)phenolate,,[Na+].COC(=O)c1ccc([O-])cc1,PESXGULMKCKJCC-UHFFFAOYSA-M,0.380300188
dl-isovaline;  dl-2-amino-2-methylbutanoic acid,,CCC(C)(N)C(O)=O,GCHPUFAZSONQIV-UHFFFAOYSA-N,0.38
"ethanone, 1-(2-methyloxiranyl)-",,CC(=O)C1(C)CO1,MQUWXOWAAZHBSG-UHFFFAOYSA-N,0.3797
"3,6-diaminoacridine",,Nc1ccc2cc3ccc(N)cc3nc2c1,WDVSHHCDHLJJJR-UHFFFAOYSA-N,0.3783
2-methylprop-2-enamide,,CC(=C)C(N)=O,FQPSGWSUVKBHSU-UHFFFAOYSA-N,0.37539119
Rolitetracycline,CAS751-97-3,CN(C)[C@@H]1C(O)=C(C(=O)NCN2CCCC2)C(=O)[C@@]2(O)C(O)=C3C(=O)c4c(O)cccc4[C@@](C)(O)[C@H]3C[C@@H]12,HMEYVGGHISAPJR-IAHYZSEUSA-N,0.37
"propanamide, n,n'-1,2-ethanediylbis-",,CCC(=O)NCCNC(=O)CC,USEVKDWMVPLICN-UHFFFAOYSA-N,0.3746
d-glycero-l-gulo-heptitol,,OCC(O)C(O)C(O)C(O)C(O)CO,OXQKEKGBFMQTML-UHFFFAOYSA-N,0.3722
"l-Glutamic acid, N-coco acyl derivs., disodium salts",,[Na+].[Na+].N[C@@H](CCC([O-])=O)C([O-])=O,PXEDJBXQKAGXNJ-QTNFYWBSSA-L,0.371965463
"1,3,5-trioxane",,C1OCOCO1,BGJSXRVXTHVRSN-UHFFFAOYSA-N,0.371717126
"4-methyl-1,3-dioxolan-2-one",,CC1COC(=O)O1,RUOJZAUFBMNUDX-UHFFFAOYSA-N,0.371232292
dsma,,[Na+].[Na+].C[As]([O-])([O-])=O,SDIXRDNYIMOKSG-UHFFFAOYSA-L,0.3711
"disodium benzene-1,3-disulfonate",,[Na+].[Na+].[O-][S](=O)(=O)c1cccc(c1)[S]([O-])(=O)=O,XWPWZOJBTOJEGW-UHFFFAOYSA-L,0.370947285
Cefoxitin,CAS35607-66-0,CO[C@@]1(NC(=O)Cc2cccs2)C(=O)N2C(C(=O)O)=C(COC(N)=O)CS[C@@H]21,WZOZEZRFJCJXNZ-ZBFHGGJFSA-N,0.37
"diammonium 2,3-dihydroxybutanedioate",,N.N.O[C@H]([C@@H](O)C(O)=O)C(O)=O,NGPGDYLVALNKEG-OLXYHTOASA-N,0.366276763
"2,3-butanedione",,CC(=O)C(C)=O,QSJXEFYPDANLFS-UHFFFAOYSA-N,0.3661
lanthanum(3+) ion trichloride,,O.O.O.O.O.O.O.[Cl-].[Cl-].[Cl-].[La+3],FDFPDGIMPRFRJP-UHFFFAOYSA-K,0.365226597
cytisine,,O=C1C=CC=C2[C@@H]3CNC[C@H](C3)CN12,ANJTVLIZGCUXLD-IUCAKERBSA-N,0.363
2-hydroxy-but-3-enoic acid ethyl ester,,CCOC(=O)C(O)C=C,HMCVHEYVNMVFDP-UHFFFAOYSA-N,0.3627
"octane-1,8-diamine",,[Cl-].[Cl-].[NH3+]CCCCCCCC[NH3+],ZFLWZOGXFQNIMT-UHFFFAOYSA-N,0.362142177
2-buten-1-ol (cis),,C\C=C/CO,WCASXYBKJHWFMY-IHWYPQMZSA-N,0.3621
Cobaltous nitrate hexahydrate,,O.O.O.O.O.O.[Co++].[O-][N+]([O-])=O.[O-][N](=O)=O,QGUAJWGNOXCYJF-UHFFFAOYSA-N,0.361876193
"1-propene-1,2,3-tricarboxylic acid, (z)-",,OC(=O)C\C(=C/C(O)=O)C(O)=O,GTZCVFVGUGFEME-HNQUOIGGSA-N,0.3612
"2-hydroxy-3,3,3-trichloropropanoic acid;  beta,beta,beta-trichlorolactic  acid;",,OC(C(O)=O)C(Cl)(Cl)Cl,PBXLMODGBAXKQR-UHFFFAOYSA-N,0.36
Cytisine,,C1=CC(=O)N2CC(C3)CNCC3C2=C1,ANJTVLIZGCUXLD-UHFFFAOYSA-N,0.36
cysteine,,NC(CS)C(O)=O,XUJNEKJLAYXESH-UHFFFAOYSA-N,0.3597
"2-pteridinamine, n,n-dimethyl-",,CN(C)c1ncc2nccnc2n1,JXKUCNDDDQEMSS-UHFFFAOYSA-N,0.3586
maltose,,OCC1OC(OC2C(O)C(O)C(O)OC2CO)C(O)C(O)C1O,GUBGYTABKSRVRQ-UHFFFAOYSA-N,0.3577
(3-{[3-(dimethylamino)propyl]amino}propyl)dimethylamine,,CN(C)CCCNCCCN(C)C,BXYVQNNEFZOBOZ-UHFFFAOYSA-N,0.355850804
disodium sulfanediide,,[Na+].[Na+].[SH-],VDQVEACBQKUUSU-UHFFFAOYSA-M,0.352490659
2-methylbut-3-en-2-ol,,CC(C)(O)C=C,HNVRRHSXBLFLIG-UHFFFAOYSA-N,0.351057238
lactulose,,OC[C@H]1O[C@@H](O[C@@H]2[C@@H](CO)O[C@](O)(CO)[C@H]2O)[C@H](O)[C@@H](O)[C@H]1O,JCQLYHFGKNRPGE-FCVZTGTOSA-N,0.3487
sodium 4-(propan-2-yl)benzene-1-sulfonate,,[Na+].CC(C)c1ccc(cc1)[S]([O-])(=O)=O,QEKATQBVVAZOAY-UHFFFAOYSA-M,0.346022737
"disodium hydrogen 2-hydroxypropane-1,2,3-tricarboxylate",,[Na+].[Na+].OC(=O)C(O)(CC([O-])=O)CC([O-])=O,CEYULKASIQJZGP-UHFFFAOYSA-L,0.345413007
"(2S,4R)-1-acetyl-4-hydroxypyrrolidine-2-carboxylic acid",,CC(=O)N1C[C@@H](O)C[C@H]1C([O-])=O,BAPRUDZDYCKSOQ-WDSKDSINSA-M,0.344992722
dilithium pentanedioate,,[Li+].[Li+].[O-]C(=O)CCCC([O-])=O,PLYZFCVUMQOYCR-UHFFFAOYSA-L,0.342754077
Scopolamine,CAS51-34-3,CN1C2CC(OC(=O)C(CO)c3ccccc3)CC1C1OC12,STECJAGHUSJQJN-UHFFFAOYSA-N,0.34
"tris(2-hydroxyethyl)-1,3,5-triazinane-2,4,6-trione",,OCCN1C(=O)N(CCO)C(=O)N(CCO)C1=O,BPXVHIRIPLPOPT-UHFFFAOYSA-N,0.340366328
2-acrylamido-2-methylpropanesulphonic acid,,[Na+].CC(C)(C[S]([O-])(=O)=O)NC(=O)C=C,FWFUWXVFYKCSQA-UHFFFAOYSA-M,0.338692866
Desvenlafaxine,CAS93413-62-8,CN(C)CC(c1ccc(O)cc1)C1(O)CCCCC1,KYYIDSXMWOZKMP-UHFFFAOYSA-N,0.34
ethanethioamide,,CC(N)=S,YUKQRDCYNOVPGJ-UHFFFAOYSA-N,0.336339534
Morphine 6-Glucuronide,PubChemCIDDB06409,[H][C@]12C=C[C@H](O[C@@H]3O[C@@H]([C@@H](O)[C@H](O)[C@H]3O)C(O)=O)[C@@H]3OC4=C5C(C[C@H]1N(C)CC[C@@]235)=CC=C4O,GNJCUHZOSOYIEC-GAROZEBRSA-N,0.34
"d-glycero-d-gulo-heptonic acid, .gamma.-lactone",,OCC(O)C(O)C1OC(=O)C(O)C1O,VIVCRCODGMFTFY-UHFFFAOYSA-N,0.3348
sodium 2-ethylhexyl sulfate,,[Na+].CCCCC(CC)CO[S]([O-])(=O)=O,DGSDBJMBHCQYGN-UHFFFAOYSA-M,0.332963796
"3,6,9,12-tetraazatetradecane-1,14-diamine",,NCCNCCNCCNCCNCCN,LSHROXHEILXKHM-UHFFFAOYSA-N,0.332778733
sodium 2-bromoethane-1-sulfonate,,[Na+].[O-][S](=O)(=O)CCBr,HNFOAHXBHLWKNF-UHFFFAOYSA-M,0.332748699
4-methoxy-4-methyl-2-pentanone,,COC(C)(C)CC(C)=O,KOKPBCHLPVDQTK-UHFFFAOYSA-N,0.3326
guazatine free base,,NC(N)=NCCCCCCCCNCCCCCCCCN=C(N)N,RONFGUROBZGJKP-UHFFFAOYSA-N,0.3322
Tobramycin,CAS32986-56-4,NC[C@H]1O[C@H](O[C@@H]2[C@@H](N)C[C@@H](N)[C@H](O[C@H]3O[C@H](CO)[C@@H](O)[C@H](N)[C@H]3O)[C@H]2O)[C@H](N)C[C@@H]1O,NLVFBUXFDBBNBW-PBSUHMDJSA-N,0.33
N'-acetylacetohydrazide,,CC(=O)NNC(C)=O,ZLHNYIHIHQEHJQ-UHFFFAOYSA-N,0.328668176
cadmium dinitrate,,[Cd++].O[N+]([O-])=O.O[N+]([O-])=O,IZIPRBSCGMISKX-UHFFFAOYSA-N,0.327636132
"urea, chloro-",,NC(=O)NCl,RMXVHZFHSKRNJN-UHFFFAOYSA-N,0.3256
"glycine, n-(2-cyanoethyl)-",,OC(=O)CNCCC#N,KZUBZCHAWPDYQX-UHFFFAOYSA-N,0.3237
diammonium dihydrogen 2-({2-[bis(carboxylatomethyl)amino]ethyl}(carboxylatomethyl)amino)acetate,,[NH4+].[NH4+].OC(=O)CN(CCN(CC(O)=O)CC([O-])=O)CC([O-])=O,KYQODXQIAJFKPH-UHFFFAOYSA-N,0.322699056
tetrakis(hydroxymethyl)phosphonium chloride,,[Cl-].OC[P+](CO)(CO)CO,AKXUUJCMWZFYMV-UHFFFAOYSA-M,0.322
"benzenesulfonamide, 4-(aminomethyl)-",,NCc1ccc(cc1)[S](N)(=O)=O,TYMRLRRVMHJFTF-UHFFFAOYSA-N,0.321
potassium 4-(propan-2-yl)benzene-1-sulfonate,,[K+].CC(C)c1ccc(cc1)[S]([O-])(=O)=O,RVRONQZKSCNZRS-UHFFFAOYSA-M,0.320887212
Beta-d-Fructose,,OCC(O)C(O)C(O)C(=O)CO,BJHIKXHVCXFQLS-UHFFFAOYSA-N,0.32
2-butenal,,O=CC=CC,MLUCVPSAIODCQM-UHFFFAOYSA-N,0.32
t-Crotonaldehyde,,C/C=C/C=O,MLUCVPSAIODCQM-NSCUHMNNSA-N,0.32
"sodium (2R,3R,4S,5R,6R)-2,3,4,5,6,7-hexahydroxyheptanoate",,[Na+].OC[C@@H](O)[C@@H](O)[C@H](O)[C@@H](O)[C@@H](O)C([O-])=O,FMYOMWCQJXWGEN-WYRLRVFGSA-M,0.317070198
"calcium bis(2,3-dihydroxy-3-[2-hydroxy-5-(hydroxymethyl)-1,3,2-dioxaborolan-4-yl]propanoate)",,[Ca++].OCC1OB(O)OC1C(O)C(O)C([O-])=O.OCC2OB(O)OC2C(O)C(O)C([O-])=O,SSKRIDIHZLFJCG-UHFFFAOYSA-L,0.316972785
disodium 6-amino-5-[(E)-2-(4-amino-2-sulfonatophenyl)diazen-1-yl]-4-hydroxynaphthalene-2-sulfonate,,[Na+].[Na+].Nc1ccc(NNC2=C3C(=O)C=C(C=C3C=CC2=N)[S]([O-])(=O)=O)c(c1)[S]([O-])(=O)=O,IFEUYSFKZJGJAD-UHFFFAOYSA-L,0.316586399
"N,N-dimethyl-N'-(2,2,6,6-tetramethylpiperidin-4-yl)propane-1,3-diamine",,CN(C)CCCNC1CC(C)(C)NC(C)(C)C1,QYNFXDVIHNENBG-UHFFFAOYSA-N,0.316191362
glutamic acid hydrochloride,,[H+].[Cl-].NC(CCC(O)=O)C(O)=O,RPAJSBKBKSSMLJ-UHFFFAOYSA-N,0.3159
Venlafaxine Hydrochloride,CAS99300-78-4,COc1ccc(C(CN(C)C)C2(O)CCCCC2)cc1.Cl,QYRYFNHXARDNFZ-UHFFFAOYSA-N,0.31
diquat dibromide,,[Br-].[Br-].C1C[n+]2ccccc2c3cccc[n+]13,ODPOAESBSUKMHD-UHFFFAOYSA-L,0.3133
"phosphocreatine, sodium salt",,[Na+].[Na+].CN(CC(O)=O)C(N)=N[P]([O-])([O-])=O,RNTXMYSPASRLFT-UHFFFAOYSA-L,0.312658284
4-aminoantipyrine;  4-aminophenazone;  ampyrone,,CN1N(C2=CC=CC=C2)C(=O)C(=C1C)N,RLFWWDJHLFCNIJ-UHFFFAOYSA-N,0.31
2-[[2-[(2-amino-4-methylpentanoyl)amino]acetyl]amino]acetic acid,,CC(C)CC(N)C(=O)NCC(=O)NCC(=O)O,VWHGTYCRDRBSFI-UHFFFAOYSA-N,0.31
"1,1,1-trifluoro-2-propanol",,CC(O)C(F)(F)F,GILIYJDBJZWGBG-UHFFFAOYSA-N,0.3094
"butanenitrile, 2-hydroxy-3-methyl-, (r)-",,CC(C)[C@@H](O)C#N,YRBPUNHOIVAUFA-YFKPBYRVSA-N,0.3048
validamycin,,OC[C@H]1C[C@H](N[C@H]2C=C(CO)[C@@H](O)[C@H](O)[C@H]2O)[C@H](O)[C@@H](O)[C@@H]1O[C@@H]3O[C@H](CO)[C@@H](O)[C@H](O)[C@H]3O,JARYYMUOCXVXNK-CSLFJTBJSA-N,0.3032
trisodium 2-(oxido-oxidooxyphosphoryl)acetate,,[Na+].[Na+].[Na+].[O-]O[P]([O-])(=O)CC([O-])=O,PLVJYSAWBBKJQL-UHFFFAOYSA-K,0.301076949
raffinose,,OCC1OC(OCC2OC(OC3(CO)OC(CO)C(O)C3O)C(O)C(O)C2O)C(O)C(O)C1O,MUPFEKGTMRGPLJ-UHFFFAOYSA-N,0.3
"morpholine, 4,4',4''-phosphinylidynetris-",,O=[P](N1CCOCC1)(N2CCOCC2)N3CCOCC3,WXMQHPKQCPCDQO-UHFFFAOYSA-N,0.2984
"benzenesulfonic acid, 3-(dimethylamino)-",,CN(C)c1cccc(c1)[S](O)(=O)=O,SOKSKPNEBIDBOU-UHFFFAOYSA-N,0.2983
nickel bis(dihydrogen phosphate),,[Ni++].O[P](O)([O-])=O.O[P](O)([O-])=O,LCFKXCNZLIBDOX-UHFFFAOYSA-L,0.296424918
"tripotassium 2-hydroxypropane-1,2,3-tricarboxylate",,[K+].[K+].[K+].OC(CC([O-])=O)(CC([O-])=O)C([O-])=O,QEEAPRPFLLJWCF-UHFFFAOYSA-K,0.296193785
hexaethyl tetraphosphate,,CCO[P](=O)(OCC)O[P](=O)(OCC)O[P](=O)(OCC)O[P](=O)(OCC)OCC,DAJYZXUXDOSMCG-UHFFFAOYSA-N,0.2956
adenosine triphosphate,,Nc1ncnc2n(cnc12)C3OC(CO[P](O)(=O)O[P](O)(=O)O[P](O)(O)=O)C(O)C3O,ZKHQWZAMYRWXGA-UHFFFAOYSA-N,0.2948
polyoxin b,,N[C@@H]([C@H](O)[C@@H](O)COC(N)=O)C(=O)N[C@@H]([C@H]1O[C@H](C(O)C1O)N2C=C(CO)C(=O)NC2=O)C(O)=O,YFZNSPMAOIVQRP-KMJOXCMOSA-N,0.2946
1-benzyl-3-carbamoylpyridin-1-ium chloride,,[Cl-].NC(=O)c1ccc[n+](Cc2ccccc2)c1,XLYNVJJFQHWCEU-UHFFFAOYSA-N,0.293610373
Cobaltous acetate,,[Co++].CC([O-])=O.CC([O-])=O,QAHREYKOYSIQPH-UHFFFAOYSA-L,0.29360437
"1,3-dioxolane, 2-ethyl-",,CCC1OCCO1,WEBRDDDJKLAXTO-UHFFFAOYSA-N,0.2919
"piperazine-2,5-dione, 3-methyl-",,CC1NC(=O)CNC1=O,ICCHEGCKVBMSTF-UHFFFAOYSA-N,0.2903
"2,6-piperidinedicarboxamide",,NC(=O)C1CCCC(N1)C(N)=O,LOVQGUOGVLKMQT-UHFFFAOYSA-N,0.2893
"bis(2-hydroxypropane-1,2,3-tricarboxylic acid); tris(piperazine)",,OC(=O)CC(O)(CC(O)=O)C(O)=O.C1CNCCN1,SWDXALWLRYIJHK-UHFFFAOYSA-N,0.287941418
"N,N,N-trimethylanilinium chloride",,[Cl-].C[N+](C)(C)c1ccccc1,MQAYPFVXSPHGJM-UHFFFAOYSA-M,0.287747296
sodium octyl sulfate,,[Na+].CCCCCCCCO[S]([O-])(=O)=O,WFRKJMRGXGWHBM-UHFFFAOYSA-M,0.287206306
lactitol,,OCC(O)C(O)C(OC1OC(CO)C(O)C(O)C1O)C(O)CO,VQHSOMBJVWLPSR-UHFFFAOYSA-N,0.2872
"butanoic acid, 2-amino-, (.+-.)-",,CCC(N)C(O)=O,QWCKQJZIFLGMSD-UHFFFAOYSA-N,0.2868
3-(dodecyldimethylazaniumyl)-2-hydroxypropane-1-sulfonate,,CCCCCCCCCCCC[N+](C)(C)CC(O)C[S]([O-])(=O)=O,DDGPBVIAYDDWDH-UHFFFAOYSA-N,0.286518104
"methanamine, n-chloro-",,CNCl,QXJIABOUHLYVHP-UHFFFAOYSA-N,0.2806
ascorbic  acid;  vitamin c,,OCC(O)C1OC(=O)C(=C1O)O,CIWBSHSKHKDKBQ-UHFFFAOYSA-N,0.28
isobutyricacid,,CC(C)C(O)=O,KQNPFQTWMSNSAP-UHFFFAOYSA-N,0.2777
l-ascorbic acid,,OCC(O)C1OC(=C(O)C1=O)O,TYQCGQRIZGCHNB-UHFFFAOYSA-N,0.277
bis(2-[bis(2-hydroxyethyl)amino]ethan-1-ol); dodecanedioic acid,,OCCN(CCO)CCO.OCCN(CCO)CCO.OC(=O)CCCCCCCCCCC(O)=O,ONJCEWDYMQEPNH-UHFFFAOYSA-N,0.276803833
"1,2,3-propanetricarboxylic acid",,OC(=O)CC(CC(O)=O)C(O)=O,KQTIIICEAUMSDG-UHFFFAOYSA-N,0.275
"2-[(2H-1,3-benzodioxol-5-yl)amino]ethan-1-ol hydrochloride",,[H+].[Cl-].OCCNc1ccc2OCOc2c1,LMONVTDNVNEAQG-UHFFFAOYSA-N,0.272897501
butyramide,,CCCC(N)=O,DNSISZSEWVHGLH-UHFFFAOYSA-N,0.2721
propionitrile,,CCC#N,FVSKHRXBFJPNKK-UHFFFAOYSA-N,0.2718
ethoxyethylacetate,,CCOCCOC(C)=O,SVONRAPFKPVNKG-UHFFFAOYSA-N,0.2716
Hydroxyzine,CAS68-88-2,OCCOCCN1CCN(C(c2ccccc2)c2ccc(Cl)cc2)CC1,ZQDWXGKKHFNSQK-UHFFFAOYSA-N,0.27
(4-methyl-1H-imidazol-5-yl)methanol,,Cc1[nH]cnc1CO,AXJZCJSXNZZMDU-UHFFFAOYSA-N,0.268333767
(2S)-2-aminopropanoic acid,,CC(N)C(O)=O,QNAYBMKLOCPYGJ-UHFFFAOYSA-N,0.267898616
"glycine, n-formyl-",,OC(=O)CNC=O,UGJBHEZMOKVTIM-UHFFFAOYSA-N,0.2672
sodium vanadiumoylolate,,[Na+].[O-][V](=O)=O,CMZUMMUJMWNLFH-UHFFFAOYSA-N,0.266461374
"1,4-benzenedicarboxamide, n,n,n',n'-tetramethyl-",,CN(C)C(=O)c1ccc(cc1)C(=O)N(C)C,MKIKJJUYURBXJT-UHFFFAOYSA-N,0.2656
magnesium hydrogenorthophosphate,,[Mg++].O[P]([O-])([O-])=O,MHJAJDCZWVHCPF-UHFFFAOYSA-L,0.264188022
methane arsonate,,C[As](O)(O)=O,QYPPRTNMGCREIM-UHFFFAOYSA-N,0.2622
Acetonitrile,,CC#N,WEVYAHXRMPXWCK-UHFFFAOYSA-N,0.26
"N,N-dimethylimidodicarbonimidic diamide hydrochloride",,[H+].[Cl-].CN(C)C(=N)N=C(N)N,OETHQSJEHLVLGH-UHFFFAOYSA-N,0.257987497
"1,5-anthraquinonedisulfonic acid",,O[S](=O)(=O)c1cccc2C(=O)c3c(cccc3[S](O)(=O)=O)C(=O)c12,OZTBHAGJSKTDGM-UHFFFAOYSA-N,0.2572
1-[2-dimethylamino-1-(4-methoxyphenyl)ethyl]cyclohexan-1-ol,,COc1ccc(cc1)C(CN(C)C)C2(O)CCCCC2,PNVNVHUZROJLTJ-UHFFFAOYSA-N,0.256718745
caesium(1+) ion nitrate,,[Cs],TVFDJXOCXUVLDH-UHFFFAOYSA-N,0.255764198
"hexane-1,6-diamine; hexanedioic acid",,NCCCCCCN.OC(=O)CCCCC(O)=O,UFFRSDWQMJYQNE-UHFFFAOYSA-N,0.251364785
malononitrile;  dicyanomethane,,N#CCC#N,CUONGYYJJVDODC-UHFFFAOYSA-N,0.25
"propanenitrile, 2-(acetyloxy)-",,CC(OC(C)=O)C#N,BMJFWKRWVAQUPA-UHFFFAOYSA-N,0.2475
Ranitidine,CAS66357-35-5,CN/C(=C\[N+](=O)[O-])NCCSCc1ccc(CN(C)C)o1,VMXUWOKSQNHOCA-UKTHLTGXSA-N,0.25
"2-(2,4-diaminophenoxy)ethan-1-ol dihydrochloride",,[H+].[H+].[Cl-].[Cl-].Nc1ccc(OCCO)c(N)c1,VXYWXJXCQSDNHX-UHFFFAOYSA-N,0.246159297
"alanine, 2-methyl-",,CC(C)(N)C(O)=O,FUOOLUPWFVMBKG-UHFFFAOYSA-N,0.2453
sodium 2-[(2-aminoethyl)amino]ethanesulfonate,,[Na+].NCCNCC[S]([O-])(=O)=O,VRRABDXZDGRGPC-UHFFFAOYSA-M,0.244535954
ammonium perchlorate,,[NH4+].[O-][Cl](=O)(=O)=O,HHEFNVCDPLQQTP-UHFFFAOYSA-N,0.243662836
"sodium 3-[[4-amino-9,10-dihydro-3-[2-(2-methoxyethoxy)ethoxy]-9,10-dioxo-1-anthryl]amino]-2,4,6-trimethylbenzenesulphonate",,[Na+].COCCOCCOc1cc(Nc2c(C)cc(C)c(c2C)[S]([O-])(=O)=O)c3C(=O)c4ccccc4C(=O)c3c1N,JHAWQFNAZVTBHV-UHFFFAOYSA-M,0.239123102
potassium {[(3-methylbutyl)sulfanyl]carbonyl}sulfanide,,[K+].CC(C)CCOC([S-])=S,CMXOFNZFIJEFDA-UHFFFAOYSA-M,0.237889723
dipotassium zinc 2-[2-[bis(2-oxido-2-oxoethyl)amino]ethyl-(2-oxido-2-oxoethyl)amino]acetate,,[K+].[K+].[Zn++].[O-]C(=O)CN(CCN(CC([O-])=O)CC([O-])=O)CC([O-])=O,HALPFWFCTAYLEL-UHFFFAOYSA-J,0.237458201
L-sorbosonic acid,,OC[C@H](O)[C@@H](O)[C@H](O)C(=O)C(O)=O,VBUYCZFBVCCYFD-NUNKFHFFSA-N,0.237320765
disodium oxosilanebis(olate),,[Na+].[Na+].[O-][Si]([O-])=O,NTHWMYGWWRZVTN-UHFFFAOYSA-N,0.235635255
nitromethane,,C[N+]([O-])=O,LYGJENNIWJXYER-UHFFFAOYSA-N,0.233501766
naphthalene-2-sulfonic acid,,O[S](=O)(=O)c1ccc2ccccc2c1,KVBGVZZKJNLNJU-UHFFFAOYSA-N,0.230443278
N-methylpiperidine,,N(CCCC1)(C1)C,PAMIQIKDUOTOBW-UHFFFAOYSA-N,0.23
disodium 3-[(3-sulfonatopropyl)disulfanyl]propane-1-sulfonate,,[Na+].[Na+].[O-][S](=O)(=O)CCCSSCCC[S]([O-])(=O)=O,WIYCQLLGDNXIBA-UHFFFAOYSA-L,0.228652636
Dosulepin; Dothiepin,DB09167,CN(C)CC\C=C1/C2=CC=CC=C2CSC2=CC=CC=C12,PHTUQLWOUWZIMZ-GZTJUZNOSA-N,0.23
2-(dimethylamino)ethyl acrylate,,CN(C)CCOC(=O)C=C,DPBJAVGHACCNRL-UHFFFAOYSA-N,0.224310685
sulfur dioxide,,O=[S]=O,RAHZWNYVWXNFOC-UHFFFAOYSA-N,0.2235
disodium 2-hexadecyl-3-(2-sulfonatophenoxy)benzenesulfonate,,[Na+].[Na+].CCCCCCCCCCCCCCCCc1c(Oc2ccccc2[S]([O-])(=O)=O)cccc1[S]([O-])(=O)=O,DWBRKIMUGXLNBO-UHFFFAOYSA-L,0.222765354
"trilithium 2-hydroxypropane-1,2,3-tricarboxylate tetrahydrate",,[Li+].[Li+].[Li+].O.O.O.O.OC(CC([O-])=O)(CC([O-])=O)C([O-])=O,HXGWMCJZLNWEBC-UHFFFAOYSA-K,0.221876471
"1,3,2-dioxathiolane, 2-oxide",,O=[S]1OCCO1,WDXYVJKNSMILOQ-UHFFFAOYSA-N,0.2214
thiamine,,[Cl-].Cc1ncc(C[n+]2csc(CCO)c2C)c(N)n1,MYVIATVLJGTBFV-UHFFFAOYSA-M,0.2207
zinc acetate,,[Zn++].CC([O-])=O.CC([O-])=O,DJWUNCQRNNEAKC-UHFFFAOYSA-L,0.2179
"trisodium 2-hydroxypropane-1,2,3-tricarboxylate",,[Na+].[Na+].[Na+].OC(CC([O-])=O)(CC([O-])=O)C([O-])=O,HRXKRNGNAMMEHJ-UHFFFAOYSA-K,0.216653091