Name,ID,SMILES,inchi,LogS
"propionic acid, 3-propoxy-, methyl ester",,CCCOCCC(=O)OC,DMHHINXESLPPMV-UHFFFAOYSA-N,-0.6334
ethenyl acetate,,CC(=O)OC=C,XTXRWKRVRITETP-UHFFFAOYSA-N,-0.633922712
"benzamide, n-[2-(1h-imidazol-4-yl)ethyl]-",,O=C(NCCc1c[nH]cn1)c2ccccc2,DAUCLDROLUGJDY-UHFFFAOYSA-N,-0.634
"urea, tetraethyl-",,CCN(CC)C(=O)N(CC)CC,UWHSPZZUAYSGTB-UHFFFAOYSA-N,-0.6341
"octasodium 2,2'-{1,4-phenylenebis[imino(6-chloro-1,3,5-triazine-4,2-diyl)imino(8-hydroxy-3,6-disulfonatonaphthalene-7,1-diyl)diazene-2,1-diyl]}dinaphthalene-1,5-disulfonate",,[Na+].[Na+].[Na+].[Na+].[Na+].[Na+].[Na+].[Na+].Oc1c(Nc2nc(Cl)nc(Nc3ccc(Nc4nc(Cl)nc(Nc5c(O)c6c(cc(cc6N=Nc7ccc8c(cccc8[S]([O-])(=O)=O)c7[S]([O-])(=O)=O)[S]([O-])(=O)=O)cc5[S]([O-])(=O)=O)n4)cc3)n2)c(cc9cc(cc(N=Nc%10ccc%11c(cccc%11[S]([O-])(=O)=O)c%10[S]([O-])(=O)=O)c19)[S]([O-])(=O)=O)[S]([O-])(=O)=O,ODAJTFUSCNWRHZ-UHFFFAOYSA-F,-0.634868411
"7-amino-4-hydroxy-3-[[4-[(4-sulphophenyl)azo]phenyl]azo]naphthalene-2-sulphonic acid, compound with 2,2',2''-nitrilotriethanol (1:2)",,Nc1ccc2C(=O)C(=N/Nc3ccc(cc3)N=Nc4ccc(cc4)[S](O)(=O)=O)\C(=Cc2c1)[S](O)(=O)=O.OCCN(CCO)CCO.OCCN(CCO)CCO,UXTCBUCQMQNXQI-XDJFIHLNSA-N,-0.635904616
6-(2-oxopyridin-1-yl)hexanoic acid,,O=C(O)CCCCCN1C=CC=CC1=O,YHWNRDATJQWPTN-UHFFFAOYSA-N,-0.64
"2-hydroxypropanoic acid; 7-{[bis({[3-(diethylamino)propyl]amino})-1,3,5-triazin-2-yl]amino}-4-hydroxy-3-[(E)-2-(2-oxo-2,3-dihydro-1H-1,3-benzodiazol-5-yl)diazen-1-yl]naphthalene-2-sulfonic acid",,CCN(CC)CCCNc1nc(NCCCN(CC)CC)nc(Nc2ccc3c(O)c(N=Nc4ccc5NC(=O)Nc5c4)c(cc3c2)[S](O)(=O)=O)n1.CC(O)C(O)=O,LAVCAJLTFZEZAW-UHFFFAOYSA-N,-0.64043406
"cyclopropane, ethoxy-",,CCOC1CC1,LZTCEQQSARXBHE-UHFFFAOYSA-N,-0.6407
"methyl 2,2,2-trifluoroacetate",,COC(=O)C(F)(F)F,VMVNZNXAVJHNDJ-UHFFFAOYSA-N,-0.647983703
"4-{[4-(diethylamino)phenyl](phenyl)methylidene}-N,N-diethylcyclohexa-2,5-dien-1-iminium acetate",,CCN(CC)c1ccc(cc1)[C+](c2ccccc2)c3ccc(cc3)N(CC)CC.CC([O-])=O,ZACIFCVOARIOBT-UHFFFAOYSA-M,-0.647988018
Hydralazine Hydrochloride,CAS304-20-1,Cl.N/N=C1\N=NC=C2C=CC=CC21,SECXUXOCDLQOBI-MKFZHGHUSA-N,-0.65
cafaminol,,CN(CCO)c1nc2N(C)C(=O)N(C)C(=O)c2n1C,ZGNRRVAPHPANFI-UHFFFAOYSA-N,-0.6488
"glycine, n-acetyl-",,CC(=O)NCC(O)=O,OKJIRPAQVSHGFK-UHFFFAOYSA-N,-0.649
dimethyl selenide,,C[Se]C,RVIXKDRPFPUUOO-UHFFFAOYSA-N,-0.6502
"1,2,4-thiadiazole, 5-amino-3-ethoxy-",,CCOc1nsc(N)n1,MSMILNFZKAKCKE-UHFFFAOYSA-N,-0.6514
Enfuvirtide,CAS159519-65-0,CC[C@H](C)[C@H](NC(=O)[C@H](CC(C)C)NC(=O)[C@H](CO)NC(=O)[C@H](Cc1c[nH]cn1)NC(=O)[C@@H](NC(=O)[C@H](CC(C)C)NC(=O)[C@H](CO)NC(=O)[C@@H](NC(=O)[C@H](Cc1ccc(O)cc1)NC(C)=O)[C@@H](C)O)[C@@H](C)CC)C(=O)N[C@@H](CCC(=O)O)C(=O)N[C@@H](CCC(=O)O)C(=O)N[C@@H](CO)C(=O)N[C@@H](CCC(N)=O)C(=O)N[C@@H](CC(N)=O)C(=O)N[C@@H](CCC(N)=O)C(=O)N[C@@H](CCC(N)=O)C(=O)N[C@@H](CCC(=O)O)C(=O)N[C@@H](CCCCN)C(=O)N[C@@H](CC(N)=O)C(=O)N[C@@H](CCC(=O)O)C(=O)N[C@@H](CCC(N)=O)C(=O)N[C@@H](CCC(=O)O)C(=O)N[C@@H](CC(C)C)C(=O)N[C@@H](CC(C)C)C(=O)N[C@@H](CCC(=O)O)C(=O)N[C@@H](CC(C)C)C(=O)N[C@@H](CC(=O)O)C(=O)N[C@@H](CCCCN)C(=O)N[C@@H](Cc1c[nH]c2ccccc12)C(=O)N[C@@H](C)C(=O)N[C@@H](CO)C(=O)N[C@@H](CC(C)C)C(=O)N[C@@H](Cc1c[nH]c2ccccc12)C(=O)N[C@@H](CC(N)=O)C(=O)N[C@@H](Cc1c[nH]c2ccccc12)C(=O)N[C@@H](Cc1ccccc1)C(N)=O,PEASPLKKXBYDKL-FXEVSJAOSA-N,-0.65
"urea, n,n''-methylenebis-",,NC(=O)NCNC(N)=O,KQVLODRFGIKJHZ-UHFFFAOYSA-N,-0.6525
1-(1-butoxypropan-2-yloxy)propan-2-ol,,CCCCOCC(C)OCC(C)O,CUVLMZNMSPJDON-UHFFFAOYSA-N,-0.653059623
N-(butoxymethyl)prop-2-enamide,,CCCCOCNC(=O)C=C,UTSYWKJYFPPRAP-UHFFFAOYSA-N,-0.653663028
dimethylsulfate,,CO[S](=O)(=O)OC,VAYGXNSJCAHWJZ-UHFFFAOYSA-N,-0.6537
dipotassium O-[(sulfonatoperoxy)sulfonyl]oxidanidolate,,[K+].[K+].[O-][S](=O)(=O)OO[S]([O-])(=O)=O,USHAGKDGDHPEEY-UHFFFAOYSA-L,-0.653730142
dimethyl 2-methylenesuccinate,,COC(=O)CC(=C)C(=O)OC,ZWWQRMFIZFPUAA-UHFFFAOYSA-N,-0.653770318
5-[(2-hydroxyethyl)amino]-2-methylphenol,,Cc1ccc(NCCO)cc1O,YGRFRBUGAPOJDU-UHFFFAOYSA-N,-0.655055328
N-(prop-2-enamidomethyl)prop-2-enamide,,C=CC(=O)NCNC(=O)C=C,ZIUHHBKFKCYYJD-UHFFFAOYSA-N,-0.655242676
o-butyl carbamate,,CCCCOC(N)=O,SKKTUOZKZKCGTB-UHFFFAOYSA-N,-0.6571
hexyl D-glucoside,,CCCCCCOC1O[C@H](CO)[C@@H](O)[C@H](O)[C@H]1O,JVAZJLFFSJARQM-OZRWLHRGSA-N,-0.658698746
"phosphoric acid, methyl dipropyl ester",,CCCO[P](=O)(OC)OCCC,KCJPXMHUFVFEGM-UHFFFAOYSA-N,-0.6592
dl-methionine,,CSCCC(N)C(O)=O,FFEARJCKVFRZRR-UHFFFAOYSA-N,-0.6593
"propionic acid, 3-methoxy-, propyl ester",,CCCOC(=O)CCOC,JCMFJIHDWDKYIL-UHFFFAOYSA-N,-0.6598
ethyl_propionate,,O=C(OCC)CC,FKRCODPIKNYEAC-UHFFFAOYSA-N,-0.66
1-cyclohexyl-3-(2-dimethylaminoethyl)urea,,CN(C)CCNC(=O)NC1CCCCC1,NZEDGSZBHQVOJM-UHFFFAOYSA-N,-0.66
"disodium 2,5-dichloro-4-{3-methyl-5-oxo-4-[(E)-2-(4-sulfonatophenyl)diazen-1-yl]-4,5-dihydro-1H-pyrazol-1-yl}benzene-1-sulfonate",,[Na+].[Na+].CC1=NN(C(=O)C1N=Nc2ccc(cc2)[S]([O-])(=O)=O)c3cc(Cl)c(cc3Cl)[S]([O-])(=O)=O,FTZLWXQKVFFWLY-UHFFFAOYSA-L,-0.66054277
"1h-pyrrole-3-propanoic acid, 2,5-dihydro-4-methy",,CC1=C(CCC(O)=O)C(=O)NC1=O,ZAFOEDODWZIXMO-UHFFFAOYSA-N,-0.6608
Amiloride,CAS2609-46-3,N=C(N)NC(=O)c1nc(Cl)c(N)nc1N,XSDQTOBWRPYKKA-UHFFFAOYSA-N,-0.66
3-methylphenol,,Cc1cccc(O)c1,RLSSMJSEOOYNOY-UHFFFAOYSA-N,-0.662918503
"2-oxetanone, 3-ethyl-4-methyl-, (3s-trans)-",,CC[C@H]1[C@H](C)OC1=O,PAIRTJOPUAQMRQ-WHFBIAKZSA-N,-0.6665
"2,2,4-trimethylpentane-1,3-diol",,CC(C)C(O)C(C)(C)CO,JCTXKRPTIMZBJT-UHFFFAOYSA-N,-0.666725926
Pyrazinamide,,NC(=O)c1cnccn1,IPEHBUMCGVEMRF-UHFFFAOYSA-N,-0.667
butyldimethylamine,,CCCC[NH+](C)C,DJEQZVQFEPKLOY-UHFFFAOYSA-O,-0.667032464
(2Z)-4-butoxy-4-oxobut-2-enoic acid,,CCCCOC(=O)\C=C/C(O)=O,UTOVMEACOLCUCK-PLNGDYQASA-N,-0.667780979
"disodium 3-[(E)-2-(5-chloro-2-phenoxyphenyl)diazen-1-yl]-4-hydroxy-5-(4-methylbenzenesulfonamido)naphthalene-2,7-disulfonate",,[Na+].[Na+].Cc1ccc(cc1)[S](=O)(=O)Nc2cc(cc3C=C(C(=N/Nc4cc(Cl)ccc4Oc5ccccc5)\C(=O)c23)[S]([O-])(=O)=O)[S]([O-])(=O)=O,UHSRCNCAJFUQHB-RTFAEJQKSA-L,-0.667930686
1-acetoxymethyl-5-fluorouracil,,CC(=O)OCN1C=C(F)C(=O)NC1=O,RQIJPDNDFZUCEI-UHFFFAOYSA-N,-0.67
"ethanol, 2-bromo-, acetate",,CC(=O)OCCBr,RGHQKFQZGLKBCF-UHFFFAOYSA-N,-0.6737
Pemetrexed Disodium,CAS150399-23-8,Nc1nc(=O)c2c(CCc3ccc(C(=O)N[C@@H](CCC(=O)[O-])C(=O)[O-])cc3)c[nH]c2[nH]1.[Na+].[Na+],NYDXNILOWQXUOF-GXKRWWSZSA-L,-0.68
formanilide,,O=CNc1ccccc1,DYDNPESBYVVLBO-UHFFFAOYSA-N,-0.6785
Clofibric Acid,CAS882-09-7,CC(C)(Oc1ccc(Cl)cc1)C(=O)O,TXCGAZHTZHNUAI-UHFFFAOYSA-N,-0.68
"2-thiazolecarboxylic acid, hydrazide",,NNC(=O)c1sccn1,OPJYIWMGTSMLKB-UHFFFAOYSA-N,-0.6787
disodium 6-acetamido-4-hydroxy-3-[(4-{[2-(sulfonatooxy)ethyl]sulfonyl}phenyl)diazenyl]naphthalene-2-sulfonate,,[Na+].[Na+].CC(=O)Nc1ccc2C=C(\C(=N/Nc3ccc(cc3)[S](=O)(=O)CCO[S]([O-])(=O)=O)C(=O)c2c1)[S]([O-])(=O)=O,AAGPPJSKCWSVCQ-GHEHHKQRSA-L,-0.679407503
"2-(3-hydroxy-2,5-dioxo-1-phenylpyrrolidin-3-yl)acetic acid",,O=C(O)CC1(O)CC(=O)N(C2=CC=CC=C2)C1=O,SBUJOYSGTMYVDY-UHFFFAOYSA-N,-0.68
Hydrocodone,CAS125-29-1,COc1ccc2c3c1O[C@H]1C(=O)CC[C@H]4[C@@H](C2)N(C)CC[C@]314,LLPOLZWFYMWNKH-CMKMFDCUSA-N,-0.68
3-methylpentan-2-one,,CCC(C)C(C)=O,UIHCLUNTQKBZGK-UHFFFAOYSA-N,-0.6805
ethyl propyl ether,,CCCOCC,NVJUHMXYKCUMQA-UHFFFAOYSA-N,-0.6806
methylphosphonic acid,,C[P](O)(O)=O,YACKEPLHDIMKIO-UHFFFAOYSA-N,-0.6813
"dl-norleucine, n-acetyl-",,CCCCC(NC(C)=O)C(O)=O,JDMCEGLQFSOMQH-UHFFFAOYSA-N,-0.6823
"propanoic acid, 2-hydroxy-, 1-methyl-2-oxo-2-(2-",,CC(O)C(=O)OC(C)C(=O)OCC=C,CPKMYVLHYLGADM-UHFFFAOYSA-N,-0.6826
fosthietan,,CCO[P](=O)(OCC)N=C1SCS1,RHJOIOVESMTJEK-UHFFFAOYSA-N,-0.6835
Pregabalin,CAS148553-50-8,CC(C)C[C@H](CN)CC(=O)O,AYXYPKUFHZROOJ-ZETCQYMHSA-N,-0.68
Alosetron,CAS122852-42-0,Cc1[nH]cnc1CN1CCc2c(c3ccccc3n2C)C1=O,JSWZEAMFRNKZNL-UHFFFAOYSA-N,-0.68
calcium hydrogen borate,,[Ca++].[Ca++].[Ca++].[O-]B([O-])[O-].[O-]B([O-])[O-],VLCLHFYFMCKBRP-UHFFFAOYSA-N,-0.684341705
Leuprolide,CAS74381-53-6,CC(=O)O.CCNC(=O)[C@@H]1CCCN1C(=O)[C@H](CCCNC(=N)N)NC(=O)[C@H](CC(C)C)NC(=O)[C@@H](CC(C)C)NC(=O)[C@H](Cc1ccc(O)cc1)NC(=O)[C@H](CO)NC(=O)[C@H](Cc1c[nH]c2ccccc12)NC(=O)[C@H](Cc1c[nH]cn1)NC(=O)[C@@H]1CCC(=O)N1,RGLRXNKKBLIBQS-XNHQSDQCSA-N,-0.68
Thiopental,CAS76-75-5,CCCC(C)C1(CC)C(=O)NC(=S)NC1=O,IUJDSEJGGMCXSG-UHFFFAOYSA-N,-0.69
3-(2-hydroxyethyl)-p-phenylenediammonium sulphate,,CC(O)c1cc(N)ccc1N.[O-][S]([O-])(=O)=O,PYHIZOBOFKBJLD-UHFFFAOYSA-L,-0.68563679
Bretylium,59-41-6,CC[N+](C)(C)Cc1ccccc1Br,AAQOQKQBGPPFNS-UHFFFAOYSA-N,-0.69
tetrasodium 4-hydroxy-7-[({5-hydroxy-7-sulfonato-6-[(E)-2-(6-sulfonatonaphthalen-2-yl)diazen-1-yl]naphthalen-2-yl}carbamoyl)amino]-3-[(E)-2-(6-sulfonatonaphthalen-2-yl)diazen-1-yl]naphthalene-2-sulfonate,,[Na+].[Na+].[Na+].[Na+].[O-][S](=O)(=O)c1cccc2cc(NNC3=CC(=O)C4=CC(C=CC4=C3[S]([O-])(=O)=O)=NC(=O)Nc5ccc6C(=O)C(=N/Nc7ccc8cccc(c8c7)[S]([O-])(=O)=O)/C(=Cc6c5)[S]([O-])(=O)=O)ccc12,NBJHNXDETPQRBX-VHSPQIIZSA-J,-0.687217137
"acrylic acid, 3,3-dibromo-2-chloro-",,OC(=O)C(Cl)=C(Br)Br,NHSPPJFIJJWVTN-UHFFFAOYSA-N,-0.6873
4-chlorophenol,,Oc1ccc(Cl)cc1,WXNZTHHGJRFXKQ-UHFFFAOYSA-N,-0.687659717
3-methoxybutyl acetate,,COC(C)CCOC(C)=O,QMYGFTJCQFEDST-UHFFFAOYSA-N,-0.687784528
2-(2-ethoxyethoxy)-2-methylpropane,,CCOCCOC(C)(C)C,NUNQKTCKURIZQX-UHFFFAOYSA-N,-0.687915225
"dl-2,3-dimethylsuccinic acid",,C[C@H]([C@H](C)C([O-])=O)C([O-])=O,KLZYRCVPDWTZLH-ZXZARUISSA-L,-0.688
"trisodium trihydrogen 5,5',5''-(1,3,5-triazine-2,4,6-triyltriimino)tris[5-sulphonatosalicylate]",,[Na+].[Na+].[Na+].OC(=O)C1=CC(CC=C1O)(Nc2nc(NC3(CC=C(O)C(=C3)C(O)=O)[S]([O-])(=O)=O)nc(NC4(CC=C(O)C(=C4)C(O)=O)[S]([O-])(=O)=O)n2)[S]([O-])(=O)=O,ZUWXIYHFBSJORS-UHFFFAOYSA-K,-0.689646011
2-acetamido-3-methylpentanoic acid,,CCC(C)C(NC(C)=O)C(=O)O,JDTWZSUNGHMMJM-UHFFFAOYSA-N,-0.69
2-[(2-amino-4-methylpentanoyl)amino]-4-methylpentanoic acid,,CC(C)CC(N)C(=O)NC(CC(C)C)C(=O)O,LCPYQJIKPJDLLB-UHFFFAOYSA-N,-0.69
"2,2,2-trichloroacetaldehyde",,ClC(Cl)(Cl)C=O,HFFLGKNGCAIQMO-UHFFFAOYSA-N,-0.691340871
"butanedinitrile, ethyl-",,CCC(CC#N)C#N,GDCJAPJJFZWILF-UHFFFAOYSA-N,-0.6916
"7-hydroxy-3,7-dimethyloctanal",,CC(CCCC(C)(C)O)CC=O,WPFVBOQKRVRMJB-UHFFFAOYSA-N,-0.692136567
"hexasodium 2-({4-[bis(2-hydroxyethyl)amino]-6-({4-[(E)-2-[4-({4-[bis(2-hydroxyethyl)amino]-6-[(2,5-disulfonatophenyl)amino]-1,3,5-triazin-2-yl}amino)-2-sulfonatophenyl]ethenyl]-3-sulfonatophenyl}amino)-1,3,5-triazin-2-yl}amino)benzene-1,4-disulfonate",,[Na+].[Na+].[Na+].[Na+].[Na+].[Na+].OCCN(CCO)c1nc(Nc2ccc(\C=C\c3ccc(Nc4nc(Nc5cc(ccc5[S]([O-])(=O)=O)[S]([O-])(=O)=O)nc(n4)N(CCO)CCO)cc3[S]([O-])(=O)=O)c(c2)[S]([O-])(=O)=O)nc(Nc6cc(ccc6[S]([O-])(=O)=O)[S]([O-])(=O)=O)n1,ZECOZQHKQDLCBT-IRTUOLCXSA-H,-0.6924056
Quinine Bisulfate Heptahydrate,CAS6183-68-2,C=C[C@@H]1CN2CC[C@H]1C[C@H]2[C@H](O)c1ccnc2ccc(OC)cc12.O.O.O.O.O.O.O.O=S(=O)(O)O,MMZACAMEMISONC-AXFKBYOFSA-N,-0.69
"2-butenedioic acid, 2-methyl-, (e)-",,C\C(=C/C(O)=O)C(O)=O,HNEGQIOMVPPMNR-NSCUHMNNSA-N,-0.694
Alprenolol,CAS13655-52-2,C=CCc1ccccc1OCC(O)CNC(C)C,PAZJSJFMUHDSTF-UHFFFAOYSA-N,-0.7
"1-{bis[4-(diethylamino)phenyl]methyl}naphthalene-2,7-disulfonic acid",,CCN(CC)c1ccc(cc1)C(c2ccc(cc2)N(CC)CC)c3c4cc(ccc4ccc3[S](O)(=O)=O)[S](O)(=O)=O,BCYNJKQQXIODNZ-UHFFFAOYSA-N,-0.698476149
"propanoic acid, 2-(acetyloxy)-, ethyl ester",,CCOC(=O)C(C)OC(C)=O,BCHOKJRLDTXCSF-UHFFFAOYSA-N,-0.6994
n-nitroso-n-methylbutylamine,,CCCCN(C)N=O,PKTSCJXWLVREKX-UHFFFAOYSA-N,-0.6996
3-propionyl-5-fluorouracil;  3-propanoyl-5-fluorouracil,,CCC(=O)N1C(=O)NC=C(F)C1=O,NALBVYNGIWXLJJ-UHFFFAOYSA-N,-0.7
"(2E)-2-(2,3,4,5-Tetrahydroxyhexylidene)hydrazinecarboxamide",,CC(O)C(O)C(O)C(O)C=NNC(N)=O,BCQKJGFEDOLLJL-UHFFFAOYSA-N,-0.7
2-hydroxy-N-[6-(2-hydroxypropanoylamino)hexyl]propanamide,,CC(O)C(=O)NCCCCCCNC(=O)C(C)O,ADXAXAXRYZPBNQ-UHFFFAOYSA-N,-0.7
4-methylphenol,,Cc1ccc(O)cc1,IWDCLRJOBJJRNH-UHFFFAOYSA-N,-0.701547905
"2-cyclohexen-1-one, oxime, (e)-",,O/N=C/1CCCC=C1,WNPVAXLJVUXYFU-SREVYHEPSA-N,-0.7034
zinc bis(2-hydroxypropanoate),,[Zn++].CC(O)C([O-])=O.CC(O)C([O-])=O,CANRESZKMUPMAE-UHFFFAOYSA-L,-0.70350543
Valganciclovir; Valcyte,PubChemCID135413534,CC(C)C(C(=O)OCC(CO)OCN1C=NC2=C1N=C(NC2=O)N)N.Cl,ZORWARFPXPVJLW-UHFFFAOYSA-N,-0.7
1-ethynylcyclohexanol,,OC1(CCCCC1)C#C,QYLFHLNFIHBCPR-UHFFFAOYSA-N,-0.704896063
"[2-methyl-2-(2-methylpropyl)-1,3-dioxolan-4-yl]methanol",,CC(C)CC1(C)OCC(CO)O1,DFDWGIZZMBNYBV-UHFFFAOYSA-N,-0.705980377
"1,1-difluoroethene",,FC(F)=C,BQCIDUSAKPWEOX-UHFFFAOYSA-N,-0.7061
2-methyl-3-pentanol,,CCC(O)C(C)C,ISTJMQSHILQAEC-UHFFFAOYSA-N,-0.7062
4-{2-[(2-methylprop-2-enoyl)oxy]ethoxy}-4-oxobutanoic acid,,CC(=C)C(=O)OCCOC(=O)CCC(O)=O,ZEWLHMQYEZXSBH-UHFFFAOYSA-N,-0.706708916
iron(3+) ion sodium 2-({2-[bis(carboxylatomethyl)amino]ethyl}(carboxylatomethyl)amino)acetate,,[Na+].[Fe+3].[O-]C(=O)CN(CCN(CC([O-])=O)CC([O-])=O)CC([O-])=O,MKWYFZFMAMBPQK-UHFFFAOYSA-J,-0.707389182
Ropivacaine,CAS84057-95-4,CCCN1CCCC[C@H]1C(=O)Nc1c(C)cccc1C,ZKMNUMMKYBVTFN-HNNXBMFYSA-N,-0.71
ethylenethiourea,,S=C1NCCN1,PDQAZBWRQCGBEV-UHFFFAOYSA-N,-0.7083
n-isobutylmorpholine,,CC(C)CN1CCOCC1,QKVSMSABRNCNRS-UHFFFAOYSA-N,-0.7089
potassium hydrogen oxalate,,[K+].OC(=O)C([O-])=O,JMTCDHVHZSGGJA-UHFFFAOYSA-M,-0.70969048
3-chlorophenol,,OC1=CC(=CC=C1)Cl,HORNXRXVQWOLPJ-UHFFFAOYSA-N,-0.71
2-chloropteridine,,ClC1=NC2=C(C=N1)N=CC=N2,JISQBJRFTCXDEO-UHFFFAOYSA-N,-0.71
"trifluridine;  alpha,alpha,alpha-trifluorothymidine;  2'-deoxy-5-(trifluoromethyl)uridine",,OCC1OC(CC1O)N2C=C(C(=O)NC2=O)C(F)(F)F,VSQQQLOSPVPRAZ-UHFFFAOYSA-N,-0.71
2-(1-hydroxy-1-oxobutan-2-yl)sulfanylbutanoic acid,,CCC(SC(CC)C(=O)O)C(=O)O,IQJONTHXEYNKMB-UHFFFAOYSA-N,-0.71
2-acetamidopentanedioic acid,,CC(=O)NC(CCC(=O)O)C(=O)O,RFMMMVDNIPUKGG-UHFFFAOYSA-N,-0.71
Aldicarb,,CNC(=O)ON=CC(C)(C)SC,QGLZXHRNAYXIBU-UHFFFAOYSA-N,-0.71
"1,2,3,6-tetrahydrophthalic anhydride",,O=C1OC(=O)C2CC=CCC12,KMOUUZVZFBCRAM-UHFFFAOYSA-N,-0.713921772
"sodium 1,4-bis(cyclohexyloxy)-1,4-dioxobutane-2-sulfonate",,[Na+].[O-][S](=O)(=O)C(CC(=O)OC1CCCCC1)C(=O)OC2CCCCC2,UELAIMNOXLAYRW-UHFFFAOYSA-M,-0.714701597
disodium 3-[(E)-2-{3-methoxy-4-[({2-methoxy-4-[(E)-2-(3-sulfonatophenyl)diazen-1-yl]phenyl}carbamoyl)amino]phenyl}diazen-1-yl]benzene-1-sulfonate,,[Na+].[Na+].COc1cc(ccc1NC(=O)Nc2ccc(cc2OC)N=Nc3cccc(c3)[S]([O-])(=O)=O)N=Nc4cccc(c4)[S]([O-])(=O)=O,MFZGSFUTGDGCSC-UHFFFAOYSA-L,-0.714875651
Propranolol Hydrochloride,CAS318-98-9,CC(C)NCC(O)COc1cccc2ccccc12.Cl,ZMRUPTIKESYGQW-UHFFFAOYSA-N,-0.71
2-(2-phenoxyethoxy)ethan-1-ol,,OCCOCCOc1ccccc1,ZUAURMBNZUCEAF-UHFFFAOYSA-N,-0.716525615
bis(chloromethyl) ether,,ClCOCCl,HRQGCQVOJVTVLU-UHFFFAOYSA-N,-0.7181
benzyltriphenylphosphanium chloride,,[Cl-].C(c1ccccc1)[P+](c2ccccc2)(c3ccccc3)c4ccccc4,USFRYJRPHFMVBZ-UHFFFAOYSA-M,-0.718824561
"1h-purine-2,6-dione, 1-ethyl-3,7-dihydro-3,7-dim",,CCN1C(=O)N(C)c2ncn(C)c2C1=O,KRVVZPXPQUPXJE-UHFFFAOYSA-N,-0.719
propyl_acetate,,O=C(OCCC)C,YKYONYBAUNKHLG-UHFFFAOYSA-N,-0.72
3-Methyl-2-pentanol,,CCC(C)CCO,IWTBVKIGCDZRPL-UHFFFAOYSA-N,-0.72
3-methyl-2-pentanol,,CCC(C)C(C)O,ZXNBBWHRUSXUFZ-UHFFFAOYSA-N,-0.7216
Protriptyline,CAS438-60-8,CNCCCC1c2ccccc2C=Cc2ccccc21,BWPIARFWQZKAIA-UHFFFAOYSA-N,-0.72
"3,3-dimethyl-2-butanone",,CC(=O)C(C)(C)C,PJGSXYOJTGTZAV-UHFFFAOYSA-N,-0.7219
"2,4-pentadienenitrile",,C=C\C=C/C#N,STSRVFAXSLNLLI-ARJAWSKDSA-N,-0.7221
palladium(2+) ion tetraamine dihydrogen carbonate,,N.N.N.N.[Pd++].OC([O-])=O.OC([O-])=O,QYYPTZGPXKUKRM-UHFFFAOYSA-L,-0.722399688
"2,3,3-trimethyl-2-butanol",,CC(C)(C)C(C)(C)O,OKXVARYIKDXAEO-UHFFFAOYSA-N,-0.723
diacetylene,,C#CC#C,LLCSWKVOHICRDD-UHFFFAOYSA-N,-0.7241
potassium difluorodihydroxyboranuide,,[K+].O[B-](O)(F)F,VRMTUNITGONABS-UHFFFAOYSA-N,-0.724347118
"glycine, n-(2-furanylcarbonyl)-",,OC(=O)CNC(=O)c1occc1,KSPQDMRTZZYQLM-UHFFFAOYSA-N,-0.7272
"1h-purine-2,6-dione, 3,7-dihydro-1,3,8-trimethyl",,CN1C(=O)N(C)c2nc(C)[nH]c2C1=O,WZBKGWBHAPBSBF-UHFFFAOYSA-N,-0.7276
"lactic acid, 2-methyl-, isobutyl ester",,CC(C)COC(=O)C(C)(C)O,OMLWQIBXAJLLRC-UHFFFAOYSA-N,-0.7276
"1,4-piperazinedicarboxylic acid, diethyl ester",,CCOC(=O)N1CCN(CC1)C(=O)OCC,NAEAAGULDNVNCW-UHFFFAOYSA-N,-0.7288
"n,o-diacetyl-6-deoxyacyclovir",,CC(=O)NC1=NC2=C(C=N1)N=C[N]2COCCOC(C)=O,NZSQZKSAMAZAEC-UHFFFAOYSA-N,-0.73
"3-(2-methoxyphenoxy)propane-1,2-diol",,COC1=C(OCC(O)CO)C=CC=C1,HSRJKNPTNIJEKV-UHFFFAOYSA-N,-0.73
2-[(2-aminoacetyl)amino]-3-(4-hydroxyphenyl)propanoic acid,,NCC(=O)NC(CC1=CC=C(O)C=C1)C(=O)O,XBGGUPMXALFZOT-UHFFFAOYSA-N,-0.73
"urea, (1,1-dimethylethyl)-",,CC(C)(C)NC(N)=O,JLEHSYHLHLHPAL-UHFFFAOYSA-N,-0.7306
sec-butyl methyl ether,,CCC(C)OC,FVNIMHIOIXPIQT-UHFFFAOYSA-N,-0.7306
"pyrazinamide, n-(4-methyl-2-pyrimidinyl)-",,Cc1ccnc(NC(=O)c2cnccn2)n1,XSVJUTVNSDRVBW-UHFFFAOYSA-N,-0.7308
"dl-leucine, n-formyl-",,CC(C)CC(NC=O)C(O)=O,HFBHOAHFRNLZGN-UHFFFAOYSA-N,-0.7328
butocarboxim,,CNC(=O)O\N=C(\C)C(C)SC,SFNPDDSJBGRXLW-UITAMQMPSA-N,-0.7353
Benazepril,CAS86541-75-5,CCOC(=O)[C@H](CCc1ccccc1)N[C@H]1CCc2ccccc2N(CC(=O)O)C1=O,XPCFTKFZXHTYIP-PMACEKPBSA-N,-0.74
"4-methyl-3a,4,7,7a-tetrahydro-2-benzofuran-1,3-dione",,CC1C=CCC2C1C(=O)OC2=O,XPEKVUUBSDFMDR-UHFFFAOYSA-N,-0.736268462
o-aminophenol,,Nc1ccccc1O,CDAWCLOXVUBKRW-UHFFFAOYSA-N,-0.7369
dichlorofluoromethane,,FC(Cl)Cl,UMNKXPULIDJLSU-UHFFFAOYSA-N,-0.7383
secnidazole,,CC(O)C[N]1C(=NC=C1[N+]([O-])=O)C,KPQZUUQMTUIKBP-UHFFFAOYSA-N,-0.74
phenylglyoxal (monohydrate),,O=CC(=O)C1=CC=CC=C1,OJUGVDODNPJEEC-UHFFFAOYSA-N,-0.74
ethyl_acrylate,,O=C(OCC)C=C,JIGUQPWFLRLWPJ-UHFFFAOYSA-N,-0.74
L-Asparagine,,O=C(O)C(N)CC(=O)N,DCXYFEDJOCDNAF-UHFFFAOYSA-N,-0.74
4-bromo-trans-crotonic acid,,OC(=O)\C=C\CBr,DOTGZROJTAUYFQ-OWOJBTEDSA-N,-0.7403
pralidoxime iodide [usan:inn:jan],,[I-].CN1C=CC=C\C1=C/[NH+]=O,QNBVYCDYFJUNLO-UHDJGPCESA-N,-0.7405
monotropitoside,,COC(=O)c1ccccc1OC2OC(COC3OCC(O)C(O)C3O)C(O)C(O)C2O,VHUNCYDAXJGCLO-UHFFFAOYSA-N,-0.7418
thymidine,,CC1=CN(C2CC(O)C(CO)O2)C(=O)NC1=O,IQFYYKKMVGJFEH-UHFFFAOYSA-N,-0.742062088
2-phenoxyethan-1-ol,,OCCOc1ccccc1,QCDWFXQBSFUVSP-UHFFFAOYSA-N,-0.742461176
iopamidol,,C[C@H](O)C(=O)Nc1c(I)c(C(=O)NC(CO)CO)c(I)c(C(=O)NC(CO)CO)c1I,XQZXYNRDCRIARQ-LURJTMIESA-N,-0.7443
(4-methoxyphenyl)methanol,,COc1ccc(CO)cc1,MSHFRERJPWKJFX-UHFFFAOYSA-N,-0.744727146
"2-furanacetic acid, tetrahydro-2-methyl-5-oxo-,",,CCOC(=O)CC1(C)CCC(=O)O1,XPHDAEADNYTVAU-UHFFFAOYSA-N,-0.7472
4-methoxyaniline,,COc1ccc(N)cc1,BHAAPTBBJKJZER-UHFFFAOYSA-N,-0.748029368
"acetic acid, [(aminothioxomethyl)thio]-",,NC(=S)SCC(O)=O,KXMZHKOZDQLZMO-UHFFFAOYSA-N,-0.7482
"3,6-dimethylpiperazine-2,5-dione",,CC1NC(=O)C(C)NC1=O,WWISPHBAYBECQZ-UHFFFAOYSA-N,-0.75
gamma-cyclodextrin,,OCC1OC2OC3C(O)C(O)C(OC3CO)OC4C(O)C(O)C(OC4CO)OC5C(O)C(O)C(OC5CO)OC6C(O)C(O)C(OC6CO)OC7C(O)C(O)C(OC7CO)OC8C(O)C(O)C(OC8CO)OC9C(O)C(O)C(OC9CO)OC1C(O)C2O,GDSRMADSINPKSL-UHFFFAOYSA-N,-0.75
"6,7-dihydroxy-1-methyl-3,4-dihydro-2H-isoquinoline-1-carboxylic acid",,CC1(C(=O)O)NCCC2=C1C=C(O)C(O)=C2,XHGLVMDBZZZXDP-UHFFFAOYSA-N,-0.75
Morphine hydrochloride,CAS52-26-6,CN1CC[C@]23c4c5ccc(O)c4O[C@H]2[C@@H](O)C=C[C@@]3(C)[C@H]1C5.Cl,DWFBCDYPSPGCHW-FEPLECRHSA-N,-0.75
"trisodium 7-({4-chloro-6-[(3-sulfonatophenyl)amino]-1,3,5-triazin-2-yl}(methyl)amino)-4-hydroxy-3-[(E)-2-(2-sulfonatophenyl)diazen-1-yl]naphthalene-2-sulfonate",,[Na+].[Na+].[Na+].CN(c1ccc2c(c1)C=C(/C(=N/Nc3ccccc3[S]([O-])(=O)=O)C2=O)[S]([O-])(=O)=O)c4nc(Cl)nc(Nc5cccc(c5)[S]([O-])(=O)=O)n4,HTXSZYABOIULBS-ZHMXUHHZSA-K,-0.752029987
2-acetoxy-propionic acid butyl ester,,CCCCOC(=O)C(C)OC(C)=O,FRKISMRVEIRXFS-UHFFFAOYSA-N,-0.7536
2-chlorophenol,,Oc1ccccc1Cl,ISPYQTSUDJAMAB-UHFFFAOYSA-N,-0.753839202
2-chloropyridine,,Clc1ccccn1,OKDGRDCXVWSXDC-UHFFFAOYSA-N,-0.754145669
"benzoic acid, 4,5-dimethoxy-2-nitro-",,COc1cc(C([O-])=O)c(cc1OC)[N+]([O-])=O,WWCMFGBGMJAJRX-UHFFFAOYSA-M,-0.7543
"l-aspartic acid, n-methyl-",,CNC(CC(O)=O)C(O)=O,HOKKHZGPKSLGJE-UHFFFAOYSA-N,-0.7544
"1h-purine-2,6-dione, 7-ethyl-3,7-dihydro-1,3-dim",,CCn1cnc2N(C)C(=O)N(C)C(=O)c12,RPOQNHMXOPWCEK-UHFFFAOYSA-N,-0.7544
Lithium Carbonate,CAS554-13-2,O=C([O-])[O-].[Li+].[Li+],XGZVUEUWXADBQD-UHFFFAOYSA-L,-0.75
"1,3,4-thiadiazolidine-2,5-dithione",,S=C1NNC(=S)S1,BIGYLAKFCGVRAN-UHFFFAOYSA-N,-0.7552
Trimethylsulfoxonium iodide,,[I-].C[S+](C)(C)=O,BPLKQGGAXWRFOE-UHFFFAOYSA-M,-0.756884432