Name,ID,SMILES,inchi,LogS
Oxybutynin Hydrochloride,CAS1508-65-2,CCN(CC)CC#CCOC(=O)C(O)(c1ccccc1)C1CCCCC1.Cl,SWIJYDAEGSIQPZ-UHFFFAOYSA-N,-2.69
sodium; 4-(5-chloro-2-oxido-4-sulfamoylphenyl)diazenyl-5-methyl-2-phenylpyrazol-3-olate; chromium(+3) cation,,[Na+].[Cr+3].Cc1nn(c([O-])c1N=Nc2cc(Cl)c(cc2[O-])[S](N)(=O)=O)c3ccccc3.Cc4nn(c([O-])c4N=Nc5cc(Cl)c(cc5[O-])[S](N)(=O)=O)c6ccccc6,MTEWSKPSJGGDQE-UHFFFAOYSA-J,-2.692470896
Imatinib Mesylate,CAS220127-57-1,CS(=O)(=O)O.Cc1ccc(NC(=O)c2ccc(CN3CCN(C)CC3)cc2)cc1Nc1nccc(-c2cccnc2)n1,YLMAHDNUQAMNNX-UHFFFAOYSA-N,-2.69
"3,7-dimethyloctan-3-ol",,CCC(C)(O)CCCC(C)C,DLHQZZUEERVIGQ-UHFFFAOYSA-N,-2.694289782
"glycine, n-[n-(2-naphthalenylsulfonyl)glycyl]-",,OC(=O)CNC(=O)CN[S](=O)(=O)c1ccc2ccccc2c1,UDUALFJGGCLPRJ-UHFFFAOYSA-N,-2.6954
1-bromo-2-fluorobenzene,,Fc1ccccc1Br,IPWBFGUBXWMIPR-UHFFFAOYSA-N,-2.6958
"2-{6,6-dimethylbicyclo[3.1.1]hept-2-en-2-yl}ethan-1-ol",,CC1(C)[C@H]2CC=C(CCO)[C@@H]1C2,ROKSAUSPJGWCSM-UWVGGRQHSA-N,-2.695999804
Reposal,,CCC1(C(=O)NC(=O)NC1=O)C2=CCC3CCC2C3,YGOGAACPYALXRT-UHFFFAOYSA-N,-2.696
2-[(E)-2-(1-cyano-1-methylpropyl)diazen-1-yl]-2-methylbutanenitrile,,CCC(C)(N=NC(C)(CC)C#N)C#N,AVTLBBWTUPQRAY-UHFFFAOYSA-N,-2.696191526
Acrivastine,CAS87848-99-5,Cc1ccc(/C(=C\CN2CCCC2)c2cccc(/C=C/C(=O)O)n2)cc1,PWACSDKDOHSSQD-IUTFFREVSA-N,-2.7
Temazepam,CAS846-50-4,CN1C(=O)C(O)N=C(c2ccccc2)c2cc(Cl)ccc21,SEQDDYPDSLOBDC-UHFFFAOYSA-N,-2.7
trisodium hexafluoroalumanetriuide,,[F-].[F-].[F-].[F-].[F-].[F-].[Na+].[Na+].[Na+].[Al+3],REHXRBDMVPYGJX-UHFFFAOYSA-H,-2.698845903
m-bromobenzoic acid,,OC(=O)c1cccc(Br)c1,VOIZNVUXCQLQHS-UHFFFAOYSA-N,-2.699
2-amino-6-chloro-4-nitrophenol,,[Cl-].[NH3+]c1cc(cc(Cl)c1O)[N+]([O-])=O,HXKQPFKBBNRPEK-UHFFFAOYSA-N,-2.699029836
sodium 4-[[4-[(4-hydroxy-2-methylphenyl)azo]phenyl]amino]-3-nitrobenzenesulphonate,,[Na+].CC/1=CC(=O)C=CC1=N/Nc2ccc(Nc3ccc(cc3[N+]([O-])=O)[S]([O-])(=O)=O)cc2,QUMZGFZWXKDQFW-GDHRODDYSA-M,-2.699363586
hematein,,Oc1ccc2c(OCC3(O)CC4=CC(=O)C(=CC4=C23)O)c1O,HLUCICHZHWJHLL-UHFFFAOYSA-N,-2.6994
dibutyl butylphosphonate,,CCCCO[P](=O)(CCCC)OCCCC,JPGXOMADPRULAC-UHFFFAOYSA-N,-2.6995
"2-propenoic acid, 3-(4-methoxyphenyl)-, 2-ethoxy",,CCOCCOC(=O)/C=C/c1ccc(OC)cc1,CMDKPGRTAQVGFQ-RMKNXTFCSA-N,-2.6995
o-acetylacyclovir,,CC(=O)OCCOC[N]1C=NC2=C1N=C(N)NC2=O,DMHAXLGAKQREIL-UHFFFAOYSA-N,-2.7
nalidixic acid methyl ester;  methyl  nalidixate,,CCN1C=C(C(=O)OC)C(=O)C2=C1N=C(C)C=C2,HAXZNPSPJMKMIQ-UHFFFAOYSA-N,-2.7
n-hydroxymethyl-5-chlorobenzoxazol-2-one; n-(hydroxymethyl)chlorzoxazone,,OCN1C(=O)OC2=CC=C(Cl)C=C12,FSCPTWHCVYVMGT-UHFFFAOYSA-N,-2.7
"5-[(n,n-dimethylaminosulfonyl)imido]-4-methyl-2-aminosulfonyl-1,3,4-thiadiazoline",,CN(C)[S](=O)(=O)N=C1SC(=NN1C)[S](N)(=O)=O,IXUHQPKKIHYXSU-UHFFFAOYSA-N,-2.7
"2-sulfamoyl-5-benzylsulfonylamido-1,3,4-thiadiazole; 5-benzylsulfonylamino-1,3,4-thiadiazole-2-sulfonamide",,N[S](=O)(=O)C1=NN=C(N[S](=O)(=O)CC2=CC=CC=C2)S1,CYPRFFCTABNEJY-UHFFFAOYSA-N,-2.7
"5-(2,4,6-trimethylbenzenesulfonamido)-1,3,4-thiadiazole-2-sulfonamide",,CC1=CC(=C(C(=C1)C)[S](=O)(=O)NC2=NN=C(S2)[S](N)(=O)=O)C,NMYPLEDXWFOEEJ-UHFFFAOYSA-N,-2.7
2-isopropylphenyl  2'-nitro-4'-[(4''-acetylpiperazin-1''-yl)acryloyl]phenyl  sulfide,,CC(C)C1=C(SC2=C(C=C(\C=C\C(=O)N3CCN(CC3)C(C)=O)C=C2)[N+]([O-])=O)C=CC=C1,HTGGAYLWTDOFDK-PKNBQFBNSA-N,-2.7
"4-methyl-5-(4-nitrobenzenesulfonylimido)-delta2-1,3,4-thiadiazoline-2-sulfonamide",,CN1N=C(SC1=N[S](=O)(=O)C2=CC=C(C=C2)[N+]([O-])=O)[S](N)(=O)=O,NJBKUDDWNAXHHT-UHFFFAOYSA-N,-2.7
n4-[2-(benzylsulfonamido)pyrimidin-4-yl)sulfanilamide; 4-[2-(benzylsulfonylamino)pyrimidin-4-ylamino]benzenesulfonamide,,N[S](=O)(=O)C1=CC=C(NC2=CC=NC(=N2)N[S](=O)(=O)CC3=CC=CC=C3)C=C1,QFSKYCBYJWHTPZ-UHFFFAOYSA-N,-2.7
"l-365,209  (analog 6 );  (cyclic hexapeptide)",,CCC(C)C1NC(=O)C(CC2=CC=CC=C2)NC(=O)C3CCCN3C(=O)C(CC4=CC=CC=C4)N(C)C(=O)C(CCCN)NC(=O)C5CCC=NN5C1=O,JDOMSHIFFAUNHK-UHFFFAOYSA-N,-2.7
benzidine,,Nc(ccc(c(ccc(N)c1)c1)c2)c2,HFACYLZERDEVSX-UHFFFAOYSA-N,-2.7
Sulfapyridine,,O=S(=O)(Nc(nccc1)c1)c(ccc(N)c2)c2,GECHUMIMRBOMGK-UHFFFAOYSA-N,-2.7
3-[(4-nitrophenyl)carbamoylamino]propanoic acid,,C1=CC(=CC=C1NC(=O)NCCC(=O)O)[N+](=O)[O-],MYMZLBHZVRWYRE-UHFFFAOYSA-N,-2.7
N-Cyclohexyl-N-hydroxycyclobutanecarboxamide,,O=C(C1CCC1)N(O)C1CCCCC1,WIASIBZCNZVRJK-UHFFFAOYSA-N,-2.7
"4,7-dimethyloct-6-en-3-one",,CCC(=O)C(C)CC=C(C)C,WKQWDIFHKYWRTA-UHFFFAOYSA-N,-2.701095244
2-methoxy-4-(prop-2-en-1-yl)phenyl acetate,,COc1cc(CC=C)ccc1OC(C)=O,SCCDQYPEOIRVGX-UHFFFAOYSA-N,-2.701591149
"5-isobenzofurancarbonitrile, 1,3-dihydro-3-oxo-",,O=C1OCc2ccc(cc12)C#N,SHFPTPKYWROKQJ-UHFFFAOYSA-N,-2.7021
N-[3-(morpholin-4-yl)propyl]naphthalen-1-amine,,C(CNc1cccc2ccccc12)CN3CCOCC3,AFZZFBZPHUDOLV-UHFFFAOYSA-N,-2.702803349
S-ethyl dipropylthiocarbamate,,CCCN(CCC)C(=O)SCC,GUVLYNGULCJVDO-UHFFFAOYSA-N,-2.703174404
"undecanoic acid, 11-hydroxy-",,OCCCCCCCCCCC([O-])=O,KNRCBASNXNXUQQ-UHFFFAOYSA-M,-2.7039
desethylatrazine,,CC(C)Nc1nc(N)nc(Cl)n1,DFWFIQKMSFGDCQ-UHFFFAOYSA-N,-2.7063
"3,7-dimethyloct-6-en-1-ol",,C[C@@H](CCO)CCC=C(C)C,QMVPMAAFGQKVCJ-SNVBAGLBSA-N,-2.706734458
"naphtho[2,1-b]furan-2(1)h-one",,O=C1Cc2c(O1)ccc3ccccc23,KVLORZFYGDNPIQ-UHFFFAOYSA-N,-2.7078
6-pteridinone;  5h-pteridin-6-one,,O=C1NC2=C(N=CN=C2)N=C1,ZUPDDKRJOMELAZ-UHFFFAOYSA-N,-2.71
pteridine-7-thione; pteridine-7-thiol,,S=C1NC2=C(C=NC=N2)N=C1,NJPMKYVXPKVRHL-UHFFFAOYSA-N,-2.71
2-[(4-acetylphenyl)hydrazono]malononitrile,,CC(=O)C1=CC=C(NN=C(C#N)C#N)C=C1,CALHPSDTGPNZIJ-UHFFFAOYSA-N,-2.71
n4-acetyl-n1-(1-ethyl-2-oxopyrimidin-4-yl)sulfanilamide; 4-(n4-acetylsulfanilamido)-1-ethyl-1h-pyrimidin-2-one; n4-acetylsulfacytine,,CCN1C=CC(=NC1=O)N[S](=O)(=O)C2=CC=C(NC(C)=O)C=C2,FEALZKNFXRGXNS-UHFFFAOYSA-N,-2.71
7-Mercaptopteridine,,c1c(S)nc2cncnc2n1,LDLJGAYVPOULLZ-UHFFFAOYSA-N,-2.71
5-aminoquinoline-8-sulfonic acid,,NC1=C2C=CC=NC2=C(S(=O)(=O)O)C=C1,AFVRYMPIZFJJIL-UHFFFAOYSA-N,-2.71
decylsulfanylmethanimidamide,,CCCCCCCCCCSC(=N)N,LRWNUFGVDBJUTF-UHFFFAOYSA-N,-2.71
cyclohexene,,C1CCC=CC1,HGCIXCUEYOPUTN-UHFFFAOYSA-N,-2.710466438
dicopper(2+) ion disodium 2-[(E)-2-(2-oxido-5-sulfamoylphenyl)diazen-1-yl]-6-({5-oxido-6-[(E)-2-(2-oxido-5-sulfamoylphenyl)diazen-1-yl]-7-sulfonatonaphthalen-2-yl}amino)-3-sulfonatonaphthalen-1-olate,,[Na+].[Na+].[Cu++].[Cu++].N[S](=O)(=O)c1ccc([O-])c(c1)N=Nc2c([O-])c3ccc(Nc4ccc5c([O-])c(N=Nc6cc(ccc6[O-])[S](N)(=O)=O)c(cc5c4)[S]([O-])(=O)=O)cc3cc2[S]([O-])(=O)=O,OHHRMPATRJSFJN-UHFFFAOYSA-H,-2.710489277
"disodium 2,2'-ethene-1,2-diylbis{5-[(4-anilino-6-morpholin-4-yl-1,3,5-triazin-2-yl)amino]benzenesulfonate}",,[Na+].[Na+].[O-][S](=O)(=O)c1cc(Nc2nc(Nc3ccccc3)nc(n2)N4CCOCC4)ccc1/C=C/c5ccc(Nc6nc(Nc7ccccc7)nc(n6)N8CCOCC8)cc5[S]([O-])(=O)=O,VUJGKADZTYCLIL-YHPRVSEPSA-L,-2.710838239
"2,6-di-tert-butyl-4-[(dimethylamino)methyl]phenol",,CN(C)Cc1cc(c(O)c(c1)C(C)(C)C)C(C)(C)C,VMZVBRIIHDRYGK-UHFFFAOYSA-N,-2.711387028
sodium 6-amino-5-[[2-[(cyclohexylmethylamino)sulphonyl]phenyl]azo]-4-hydroxynaphthalene-2-sulphonate,,[Na+].CN(C1CCCCC1)[S](=O)(=O)c2ccccc2NNC3=C4C(=O)C=C(C=C4C=CC3=N)[S]([O-])(=O)=O,LSBJGNGGNXAKCL-UHFFFAOYSA-M,-2.711685939
2-[(E)-2-(1-cyano-1-methylethyl)diazen-1-yl]-2-methylpropanenitrile,,CC(C)(N=NC(C)(C)C#N)C#N,OZAIFHULBGXAKX-UHFFFAOYSA-N,-2.713250998
2-(2-naphthyloxy)ethanol,,OCCOc1ccc2ccccc2c1,BQPBZDSDFCDSAO-UHFFFAOYSA-N,-2.71429469
parethoxycaine,,CCOc1ccc(cc1)C(=O)OCCN(CC)CC,OWWVHQUOYSPNNE-UHFFFAOYSA-N,-2.7145
Bimatoprost,CAS155206-00-1,CCNC(=O)CCC/C=C\C[C@H]1[C@@H](O)C[C@@H](O)[C@@H]1/C=C/[C@@H](O)CCc1ccccc1,AQOKCDNYWBIDND-FTOWTWDKSA-N,-2.72
"cobalt(2+);2-ethyl-2,5-dimethylhexanoate",,[Co++].CCC(C)(CCC(C)C)C([O-])=O.CCC(C)(CCC(C)C)C([O-])=O,KOKXAPDKXDSOEG-UHFFFAOYSA-L,-2.716017407
"benzoic acid, 2-(4-chlorobenzoyl)-",,OC(=O)c1ccccc1C(=O)c2ccc(Cl)cc2,YWECCEXWKFHHQJ-UHFFFAOYSA-N,-2.7171
"propanamide, 2-[[(benzoyloxy)acetyl]amino]-",,CC(NC(=O)COC(=O)c1ccccc1)C(N)=O,GUNGCOIXSOZDCM-UHFFFAOYSA-N,-2.7172
Formoterol Fumarate,CAS43229-80-7,CC(CC1=CC=C(C=C1)OC)NCC(C2=CC(=C(C=C2)O)NC=O)O,BPZSYCZIITTYBL-UHFFFAOYSA-N,-2.72
"1h-pyrrole-2-carboxylic acid, 4-ethyl-5-formyl-3",,CCOC(=O)c1[nH]c(C=O)c(CC)c1C,ZPKWGTHVNZEDTD-UHFFFAOYSA-N,-2.7186
"phthalic acid, 3-nitro-, 2-butyl ester",,CCC(C)OC(=O)c1cccc(c1C([O-])=O)[N+]([O-])=O,FMPUSJAPIITOEY-UHFFFAOYSA-M,-2.7193
4-(5-ethyl-3-methylisoxazol-4-ylimino)-2-hydroxy-4h-naphthalen-1-one,,CCC1=C(N=C2C=C(O)C(=O)C3=C2C=CC=C3)C(=NO1)C,TWUYULBKODYURR-UHFFFAOYSA-N,-2.72
o-isonicotinoylzidovudine,,CC1=CN(C2CC(N=[N+]=[N-])C(COC(=O)C3=CC=NC=C3)O2)C(=O)NC1=O,OYFFXILVYKNQTK-UHFFFAOYSA-N,-2.72
levorphanol,,CN1CCC23CCCCC2C1CC4=C3C=C(O)C=C4,JAQUASYNZVUNQP-UHFFFAOYSA-N,-2.72
4-acetamidophenyl  propionate; acetaminophen propionate; 4-propanoyloxyacetanilide,,CCC(=O)OC1=CC=C(NC(C)=O)C=C1,HFVPPHLKEKRGHI-UHFFFAOYSA-N,-2.72
n-[2-(benzoyloxy)acetyl]-2-ethylpiperidine,,CCC1CCCCN1C(=O)COC(=O)C2=CC=CC=C2,WXHDYGRKHGIEOF-UHFFFAOYSA-N,-2.72
Fumaranilic acid,,O=C(O)C=CC(=O)NC1=CC=CC=C1,WHZLCOICKHIPRL-UHFFFAOYSA-N,-2.72
4-(3-hydroxyphenyl)sulfonylthiophene-2-sulfonamide,,NS(=O)(=O)C1=CC(S(=O)(=O)C2=CC(O)=CC=C2)=CS1,LRQUYRADZABVMX-UHFFFAOYSA-N,-2.72
"(3,6-dihydroxy-1-methyl-2,3-dihydroindol-5-yl)iminourea",,CN1CC(O)C2=CC(=NNC(N)=O)C(=O)C=C21,XSXCZNVKFKNLPR-UHFFFAOYSA-N,-2.72
"1,1,2,2-Tetrabromoethane  ",,BrC(Br)C(Br)Br,QXSZNDIIPUOQMB-UHFFFAOYSA-N,-2.72
nonanoic acid,,CCCCCCCCC(O)=O,FBUKVWPVBMHYJY-UHFFFAOYSA-N,-2.722197764
"1,1,2,3,3-pentachloropropane",,ClC(Cl)C(Cl)C(Cl)Cl,PANVCEBTPSTUEL-UHFFFAOYSA-N,-2.7223
"7-{[(2S,3R,4S,5S,6R)-4,5-dihydroxy-6-(hydroxymethyl)-3-{[(2S,3R,4R,5R,6S)-3,4,5-trihydroxy-6-methyloxan-2-yl]oxy}oxan-2-yl]oxy}-5-hydroxy-2-(4-hydroxyphenyl)-3,4-dihydro-2H-1-benzopyran-4-one",,C[C@@H]1O[C@@H](O[C@@H]2[C@@H](O)[C@H](O)[C@@H](CO)O[C@H]2Oc3cc(O)c4C(=O)C[C@H](Oc4c3)c5ccc(O)cc5)[C@H](O)[C@H](O)[C@H]1O,DFPMSGMNTNDNHN-ZPHOTFPESA-N,-2.722438715
4-chloro-1-(4-fluorophenyl)butan-1-one,,Fc1ccc(cc1)C(=O)CCCCl,HXAOUYGZEOZTJO-UHFFFAOYSA-N,-2.722633923
"benzeneethanamine, n-(phenylmethyl)-",,C(Cc1ccccc1)NCc2ccccc2,UPABQMWFWCMOFV-UHFFFAOYSA-N,-2.7229
Mirtazapine,CAS85650-52-8,CN1CCN2c3ncccc3Cc3ccccc3C2C1,RONZAEMNMFQXRA-UHFFFAOYSA-N,-2.72
"ethane, 1,1,2-tribromo-",,BrCC(Br)Br,QUMDOMSJJIFTCA-UHFFFAOYSA-N,-2.7272
Enoxacin,CAS74011-58-8,CCn1cc(C(=O)O)c(=O)c2cc(F)c(N3CCNCC3)nc21,IDYZIJYBMGIQMJ-UHFFFAOYSA-N,-2.73
"acetamide, 2-cyano-n-phenyl-",,O=C(CC#N)Nc1ccccc1,XCTQPMCULSZKLT-UHFFFAOYSA-N,-2.7275
metolachlor,,CCc1cccc(C)c1N(C(C)COC)C(=O)CCl,WVQBLGZPHOPPFO-UHFFFAOYSA-N,-2.7287
"simetryne; 2-methylthio-4,6-di(ethylamino)-1,3,5-triazine",,CCNC1=NC(=NC(=N1)NCC)SC,MGLWZSOBALDPEK-UHFFFAOYSA-N,-2.73
2-biphenylcarboxylic  acid;  2-phenylbenzoic acid,,OC(=O)C1=C(C=CC=C1)C2=CC=CC=C2,ILYSAKHOYBPSPC-UHFFFAOYSA-N,-2.73
n-isonicotinoyl-n'-(2-methylbenzoyl)hydrazine,,CC1=C(C=CC=C1)C(=O)NNC(=O)C2=CC=NC=C2,FHPBWQWLOSHMLI-UHFFFAOYSA-N,-2.73
methyl 2-cyano-5-methyl-3-oxohexanoate,,COC(=O)C(C#N)C(=O)CC(C)C,BOSPLJJRCJCRHX-UHFFFAOYSA-N,-2.73
2-(4-Hydroxybenzoyl)benzoic acid,,O=C(O)C1=C(C(=O)C2=CC=C(O)C=C2)C=CC=C1,YGTUPRIZNBMOFV-UHFFFAOYSA-N,-2.73
N-Hydroxy-N-phenylbenzamide,,O=C(C1=CC=CC=C1)N(O)C1=CC=CC=C1,YLYIXDZITBMCIW-UHFFFAOYSA-N,-2.73
sulfamethazine,,S(=O)(=O)(Nc1nc(C)cc(n1)C)c1ccc(N)cc1,ASWVTGNCAZCNNR-UHFFFAOYSA-N,-2.73
2-methyl-1-butene,,CCC(C)=C,MHNNAWXXUZQSNM-UHFFFAOYSA-N,-2.7307
2-iodobenzoic acid,,OC(=O)c1ccccc1I,CJNZAXGUTKBIHP-UHFFFAOYSA-N,-2.7308
Clomiphene Citrate,CAS88431-47-4,O=C(O)C1(CCCCCc2ccc(Cl)cc2)CO1,ACZKTJZXXSHIGF-UHFFFAOYSA-N,-2.73
3-methyl-1-butene,,CC(C)C=C,YHQXBTXEYZIYOV-UHFFFAOYSA-N,-2.732
"acetamide, 2-(benzoyloxy)-n-(1-methylethyl)-",,CC(C)NC(=O)COC(=O)c1ccccc1,FUWATACATASMHP-UHFFFAOYSA-N,-2.7321
1-chloropentane,,CCCCCCl,SQCZQTSHSZLZIQ-UHFFFAOYSA-N,-2.7324
"2-chloro-1,3-benzothiazole",,Clc1sc2ccccc2n1,BSQLQMLFTHJVKS-UHFFFAOYSA-N,-2.732588375
diphenylsilanediol,,O[Si](O)(c1ccccc1)c2ccccc2,OLLFKUHHDPMQFR-UHFFFAOYSA-N,-2.733020621
methyl 3-phenylacrylate,,COC(=O)\C=C\c1ccccc1,CCRCUPLGCSFEDV-BQYQJAHWSA-N,-2.73434753
"guanidine, n,n'-bis(4-methoxyphenyl)-",,COc1ccc(NC(=N)Nc2ccc(OC)cc2)cc1,BIJOTHRFGRTFPM-UHFFFAOYSA-N,-2.7345
N-dodecanoyl-N-methylglycine,,CCCCCCCCCCCC(=O)N(C)CC(O)=O,BACYUWVYYTXETD-UHFFFAOYSA-N,-2.734641439
ethiozin,,CCSC1=NN=C(C(=O)N1N)C(C)(C)C,ADZSGNDOZREKJK-UHFFFAOYSA-N,-2.7353
"2,4-dihydro-1H-3,1-benzoxazine-2,4-dione",,O=C1Nc2ccccc2C(=O)O1,TXJUTRJFNRYTHH-UHFFFAOYSA-N,-2.735417906
methasulfocarb,,CNC(=O)Sc1ccc(O[S](C)(=O)=O)cc1,IXJOSTZEBSTPAG-UHFFFAOYSA-N,-2.7359
(2S)-3-methyl-2-[pentanoyl-[[4-[2-(2H-tetrazol-5-yl)phenyl]phenyl]methyl]amino]butanoic acid,,CCCCC(=O)N(Cc1ccc(cc1)c2ccccc2c3n[nH]nn3)[C@@H](C(C)C)C(O)=O,ACWBQPMHZXGDFX-QFIPXVFZSA-N,-2.735926094
ethyl heptanoate,,CCCCCCC(=O)OCC,TVQGDYNRXLTQAP-UHFFFAOYSA-N,-2.7369
theobromine,,Cn1cnc2N(C)C(=O)NC(=O)c12,YAPQBXQYLJRXSA-UHFFFAOYSA-N,-2.7372
"2,3-naphthalenediol",,Oc1cc2ccccc2cc1O,JRNGUTKWMSBIBF-UHFFFAOYSA-N,-2.7377
"2-methylpropyl 3,5-diamino-4-chlorobenzoate",,CC(C)COC(=O)c1cc(N)c(Cl)c(N)c1,KHUIRIRTZCOEMK-UHFFFAOYSA-N,-2.738284824
"ethyl 1,3-dioxo-1,3-dihydro-2H-isoindole-2-carboxylate",,CCOC(=O)N1C(=O)c2ccccc2C1=O,VRHAQNTWKSVEEC-UHFFFAOYSA-N,-2.738772633
guanosine,,NC1=NC2=C(N=C[N]2C3OC(CO)C(O)C3O)C(=O)N1,NYHBQMYGNKIUIF-UHFFFAOYSA-N,-2.74
tybamate,,CCCCNC(=O)OCC(C)(CCC)COC(N)=O,PRBORDFJHHAISJ-UHFFFAOYSA-N,-2.74
2-chloro-4-[(4'-acetylpiperazin-1'-yl)carbonyl)ethenyl]phenyl  indol-5''-yl  sulfide,,CC(=O)N1CCN(CC1)C(=O)/C=C/C2=CC(=C(SC3=CC4=C([NH]C=C4)C=C3)C=C2)Cl,SWIQOJQBTDWCRB-XVNBXDOJSA-N,-2.74
"5-(2,4-dinitrobenzenesulfonylimido)-4-methyl-2-sulfonamido-delta2-1,3,4-thiadiazoline",,CN1N=C(SC1=N[S](=O)(=O)C2=C(C=C(C=C2)[N+]([O-])=O)[N+]([O-])=O)[S](N)(=O)=O,SUCOUIBVJOOUIQ-UHFFFAOYSA-N,-2.74
"1,2-Dichlorotetrafluoroethane",,FC(F)(Cl)C(F)(F)Cl,DDMOUSALMHHKOS-UHFFFAOYSA-N,-2.74
Tetrachloroethylene  ,,ClC(Cl)=C(Cl)Cl,CYTYCFOTNPOANT-UHFFFAOYSA-N,-2.74
"3-pyridinecarboxylic acid, heptyl ester",,CCCCCCCOC(=O)c1cccnc1,MBYWGKLWYUEAKO-UHFFFAOYSA-N,-2.7429
"benzaldehyde, 4-hydroxy-5-methoxy-2-methyl-",,COc1cc(C=O)c(C)cc1O,MNMCHJAOXXQRID-UHFFFAOYSA-N,-2.7435
chloridazon,,NC1=C(Cl)C(=O)N(N=C1)c2ccccc2,WYKYKTKDBLFHCY-UHFFFAOYSA-N,-2.7436
2-nonanol,,CCCCCCCC(C)O,NGDNVOAEIVQRFH-UHFFFAOYSA-N,-2.744
"2-benzyl-4,4,6-trimethyl-1,3-dioxane",,CC1CC(C)(C)OC(Cc2ccccc2)O1,KSEFBQCEGMTNPD-UHFFFAOYSA-N,-2.744685443
2-methyl-3-hexyne,,CCC#CC(C)C,POBOUPFSQKXZFZ-UHFFFAOYSA-N,-2.7448
"benzenemethanol, 4-iodo-",,OCc1ccc(I)cc1,CNQRHSZYVFYOIE-UHFFFAOYSA-N,-2.746
n-(aminocarbonyl)-2-(1-methylethyl)4-pentenamide,,CC(C)C(CC=C)C(=O)NC(N)=O,KSUUMAWCGDNLFK-UHFFFAOYSA-N,-2.7469
2-[(4-methyl-2-nitrophenyl)amino]ethan-1-ol,,Cc1ccc(NCCO)c(c1)[N+]([O-])=O,SCZQUWZLEIYDBD-UHFFFAOYSA-N,-2.747405168
2-[4-(2-sulfoethyl)piperazin-1-yl]ethane-1-sulfonic acid,,[Na+].O[S](=O)(=O)CCN1CCN(CC1)CC[S]([O-])(=O)=O,OGGAIRCLBMGXCZ-UHFFFAOYSA-M,-2.747593942
ethyl 2-formamido-(furan-3-yl)acrylate,,CCOC(=O)C(NC=O)=Cc1cocc1,BXQGDXNUVKQCPP-UHFFFAOYSA-N,-2.7477
"6-methoxy-1,2,3,4-tetrahydronaphthalene",,COc1ccc2CCCCc2c1,SUFDFKRJYKNTFH-UHFFFAOYSA-N,-2.747738524
"2,6-dimethyloctan-2-ol",,CCC(C)CCCC(C)(C)O,WRFXXJKURVTLSY-UHFFFAOYSA-N,-2.749344685
4-chlorobenzonitrile,,Clc1ccc(cc1)C#N,GJNGXPDXRVXSEH-UHFFFAOYSA-N,-2.749354496
picloram,,Nc1c(Cl)c(Cl)nc(C(O)=O)c1Cl,NQQVFXUMIDALNH-UHFFFAOYSA-N,-2.7494
acyclovir  ester  x;  omega-acyclovir (4-morpholin-4-ylmethyl)benzoate,,NC1=NC2=C(N=C[N]2COCCOC(=O)C3=CC=C(CN4CCOCC4)C=C3)C(=O)N1,JSDGCANKASDATC-UHFFFAOYSA-N,-2.75
methyl  2-ethyl-2-phenylmalonurate,,CCC(C(=O)NC(N)=O)(C(=O)OC)C1=CC=CC=C1,MYLAIRXFVDTCCC-UHFFFAOYSA-N,-2.75
2-amino-5-naphthalenesulfonic  acid;  6-amino-1-naphthalenesulfonic acid,,NC1=CC2=C(C=C1)C(=CC=C2)[S](O)(=O)=O,YUNBHHWDQDGWHC-UHFFFAOYSA-N,-2.75
"l -365, 209,   analog 9 ;  (cyclic  hexapeptide)",,CCC(C)C1NC(=O)C(CC2=C[NH]C3=C2C=CC=C3)NC(=O)C4CCCN4C(=O)C(CC5=CC=CC=C5)N(C)C(=O)C6CNCCN6C(=O)C7CCCCN7C1=O,XPKURONBKQLLCO-UHFFFAOYSA-N,-2.75
n-octylamine,,CCCCCCCCN,IOQPZZOEVPZRBK-UHFFFAOYSA-N,-2.75
"5-fluoro-1-[(4-methoxyphenyl)methyl]pyrimidine-2,4-dione",,COC1=CC=C(CN2C=C(F)C(=O)NC2=O)C=C1,IWTFDHOAOPEINT-UHFFFAOYSA-N,-2.75
"1-naphthalenecarboxylic acid, 8-nitro-",,OC(=O)c1cccc2cccc(c12)[N+]([O-])=O,USMKVLABRYGBJX-UHFFFAOYSA-N,-2.7501
5-methyl-2-nitrophenol,,Cc1ccc(c(O)c1)[N+]([O-])=O,NQXUSSVLFOBRSE-UHFFFAOYSA-N,-2.7505
"5-methoxy-1,3-dihydro-2H-benzimidazole-2-thione",,COc1ccc2NC(=S)Nc2c1,KOFBRZWVWJCLGM-UHFFFAOYSA-N,-2.750681924
Chlorothiazide,CAS58-94-6,NS(=O)(=O)c1cc2c(cc1Cl)N=CNS2(=O)=O,JBMKAUGHUNFTOL-UHFFFAOYSA-N,-2.75
"acetamide, 2-(benzoyloxy)-n-butyl-",,CCCCNC(=O)COC(=O)c1ccccc1,FUKCEEDRHGCYHH-UHFFFAOYSA-N,-2.7588
n1-(4-so2nh2-ph)sulfanilamide,,Nc1ccc(cc1)[S](=O)(=O)Nc2ccc(cc2)[S](N)(=O)=O,GCQZFVAHUZIDRP-UHFFFAOYSA-N,-2.7592
"2,3,3,3-tetrafluoroprop-1-ene",,FC(=C)C(F)(F)F,FXRLMCRCYDHQFW-UHFFFAOYSA-N,-2.759957367
5-methylsalicylic  acid,,CC1=CC(=C(O)C=C1)C(O)=O,DLGBEGBHXSAQOC-UHFFFAOYSA-N,-2.76
4-chloro-3-nitrobenzoic  acid,,OC(=O)C1=CC=C(Cl)C(=C1)[N+]([O-])=O,DFXQXFGFOLXAPO-UHFFFAOYSA-N,-2.76
5'-isobutanoyl-idoxuridine; 5'-isobutanoyl-5-iodo-2'-deoxyuridine; 5'-isobutanoyl-idu,,CC(C)C(=O)OCC1OC(CC1O)N2C=C(I)C(=O)NC2=O,QUQCJNNIGSBSRQ-UHFFFAOYSA-N,-2.76
n1-(1-sec-butyl-2-oxopyrimidin-4-yl)sulfanilamide;  1-sec-butyl-4-sulfapyrimidin-2-one,,CCC(C)N1C=CC(=NC1=O)N[S](=O)(=O)C2=CC=C(N)C=C2,VUVSIYGODRCZRX-UHFFFAOYSA-N,-2.76
"2-sulfamoyl-4-methyl-5-(4-anisylsulfonylimido)-1,3,4-thiadiazoline; 5-(4-methoxybenzenesulfonylimido)-4-methyl-delta2-1,3,4-thiadiazoline-2-sulfonamide",,COC1=CC=C(C=C1)[S](=O)(=O)N=C2SC(=NN2C)[S](N)(=O)=O,GXFOJGQBUWNOTA-UHFFFAOYSA-N,-2.76
1-chloro-3-nitrobenzene,,[O-][N+](=O)c1cccc(Cl)c1,KMAQZIILEGKYQZ-UHFFFAOYSA-N,-2.7612723
"N,N-bis(2-hydroxyethyl)undec-10-enamide",,OCCN(CCO)C(=O)CCCCCCCCC=C,NGENVFQAIKEQNS-UHFFFAOYSA-N,-2.761513586
"tris(oxiran-2-ylmethyl) benzene-1,2,4-tricarboxylate",,O=C(OCC1CO1)c2ccc(C(=O)OCC3CO3)c(c2)C(=O)OCC4CO4,YNOWBNNLZSSIHM-UHFFFAOYSA-N,-2.762296476
4-methanesulfonyl-1-methyl-2-nitrobenzene,,Cc1ccc(cc1[N+]([O-])=O)[S](C)(=O)=O,OXBDLEXAVKAJFD-UHFFFAOYSA-N,-2.764701082
triclopyr,,OC(=O)COc1nc(Cl)c(Cl)cc1Cl,REEQLXCGVXDJSQ-UHFFFAOYSA-N,-2.7656
2-({2-[bis(carboxymethyl)amino]ethyl}(carboxymethyl)amino)acetic acid,,OC(=O)CN(CCN(CC(O)=O)CC(O)=O)CC(O)=O,KCXVZYZYPLLWCC-UHFFFAOYSA-N,-2.766775599
"2,6-dinitrophenol",,Oc1c(cccc1[N+]([O-])=O)[N+]([O-])=O,JCRIDWXIBSEOEG-UHFFFAOYSA-N,-2.7668
4-cyclohexylbutan-2-ol,,CC(O)CCC1CCCCC1,ZBLQQRZVKHLRBF-UHFFFAOYSA-N,-2.767361572
"naphthalene-1,5-diamine",,Nc1cccc2c(N)cccc12,KQSABULTKYLFEV-UHFFFAOYSA-N,-2.767853696
"N,N-dimethyldecanamide",,CCCCCCCCCC(=O)N(C)C,HNXNKTMIVROLTK-UHFFFAOYSA-N,-2.76811118
Anastrozole,CAS120511-73-1,CC(C)(C#N)c1cc(Cn2cncn2)cc(C(C)(C)C#N)c1,YBBLVLTVTVSKRW-UHFFFAOYSA-N,-2.77
2-heptyne,,CCCCC#CC,AMSFEMSYKQQCHL-UHFFFAOYSA-N,-2.7695
reposal,,CCC1(C(=O)NC(=O)NC1=O)C2=CC3CCC(C3)C2,MKELYWOVSPVORM-UHFFFAOYSA-N,-2.7696
"5,5-diisopropylbarbituric acid",,CC(C)C1(C(C)C)C(=O)NC(=O)NC1=O,NSQYIEOSFPLTJA-UHFFFAOYSA-N,-2.77
"isopropyl  2,2-diethylmalonurate",,CCC(CC)(C(=O)NC(N)=O)C(=O)OC(C)C,DGTCYQZOIKAZMK-UHFFFAOYSA-N,-2.77
"succinimid-1-ylmethyl  acetylsalicylate;  n-[(2-acetoxy)benzoyloxymethyl]pyrrolidine-2,5-dione",,CC(=O)OC1=CC=CC=C1C(=O)OCN2C(=O)CCC2=O,LNIRSJVVXSYEBA-UHFFFAOYSA-N,-2.77
"(z)-3-chloro-(e)-3-phenylpropenoic acid (cis-cl, trans-c6h5)",,OC(=O)/C=C(Cl)/C1=CC=CC=C1,SYLUOHMELSXJDK-VURMDHGXSA-N,-2.77
"5-(4-iodobenzenesulfonylimido)-4-methyl-2-sulfonamido-delta2-1,3,4-thiadiazoline",,CN1N=C(SC1=N[S](=O)(=O)C2=CC=C(I)C=C2)[S](N)(=O)=O,JRLUKPGVTTYGLT-UHFFFAOYSA-N,-2.77
ethylbenzene,,c1ccccc1CC,YNQLUTRBYVCPMQ-UHFFFAOYSA-N,-2.77
2-amino-3-[6-(2-amino-3-hydroxy-3-oxopropyl)sulfanylhexylsulfanyl]propanoic acid,,NC(CSCCCCCCSCC(N)C(=O)O)C(=O)O,LKJMQGLNYBMDEF-UHFFFAOYSA-N,-2.77
hydroxy-[6-[hydroxy(oxo)azaniumyl]oxyhexoxy]-oxoazanium,,C(CCCO[N+](=O)O)CCO[N+](=O)O,QXEBBSABZKCXDL-UHFFFAOYSA-N,-2.77
6-[(1-formyloctyl)amino]hexanoic acid,,CC(C)CCCCCC(=O)NCCCCCC(O)=O,KWAKSEGGFHCMJS-UHFFFAOYSA-N,-2.770853612
"2,2-bis[(prop-2-enoyloxy)methyl]butyl prop-2-enoate",,CCC(COC(=O)C=C)(COC(=O)C=C)COC(=O)C=C,DAKWPKUUDNSNPN-UHFFFAOYSA-N,-2.772789495
"cyclohexanone, 2-(1-cyclohexen-1-yl)-",,O=C1CCCCC1C2=CCCCC2,GVNVAWHJIKLAGL-UHFFFAOYSA-N,-2.774
"phenol, 4-(phenylthio)-",,Oc1ccc(Sc2ccccc2)cc1,XAYCNCYFKLSMGR-UHFFFAOYSA-N,-2.7745