Name,ID,SMILES,inchi,LogS
2-amino-2-methylpropan-1-ol; 2-dodecylbenzene-1-sulfonic acid,,CCCCCCCCCCCCc1ccccc1[S](O)(=O)=O.CC(C)(N)CO,VXMUUMWPUFLERR-UHFFFAOYSA-N,0.213791577
"sodium 3-[2-heptyl-3-(2-hydroxyethyl)-2,3-dihydro-1H-imidazol-1-yl]propanoate",,[Na+].CCCCCCCC1N(CCO)C=CN1CCC([O-])=O,YIJNRGGQSJNTGE-UHFFFAOYSA-M,0.212706758
"2-(6-methoxybenzofuran-2-yl)-1,3-dimethyl-5-(methylsulphonyl)1H-benzimidazolium acetate",,COc1ccc2cc(oc2c1)C3N(C)c4cc(ccc4[NH+]3C)[S](C)(=O)=O.CC([O-])=O,LFEGBBYAYJXRBY-UHFFFAOYSA-N,0.212574469
"1,1-dimethylurea",,CN(C)C(N)=O,YBBLOADPFWKNGS-UHFFFAOYSA-N,0.212431567
"glycine, n-(n-leucylglycyl)-",,CC(C)C[C@H](N)C(=O)NCC(=O)NCC(O)=O,VWHGTYCRDRBSFI-ZETCQYMHSA-N,0.2124
"N,N,N',N'-tetrakis(2-hydroxypropyl)hexanediamide",,CC(O)CN(CC(C)O)C(=O)CCCCC(=O)N(CC(C)O)CC(C)O,UUCAVBDCVCFNIN-UHFFFAOYSA-N,0.210993363
2-methyltetrahydrofuran,,CC1CCCO1,JWUJQDFVADABEY-UHFFFAOYSA-N,0.2069
pentasodium 2-[bis({2-[bis(carboxylatomethyl)amino]ethyl})amino]acetate,,[Na+].[Na+].[Na+].[Na+].[Na+].[O-]C(=O)CN(CCN(CC([O-])=O)CC([O-])=O)CCN(CC([O-])=O)CC([O-])=O,LQPLDXQVILYOOL-UHFFFAOYSA-I,0.201298437
methylsulfonylmethane; dimethylsulfone,,C[S](C)(=O)=O,HHVIBTZHLRERCL-UHFFFAOYSA-N,0.2
"altraric acid, d-",,O[C@H]([C@H](O)[C@H](O)C(O)=O)[C@H](O)C(O)=O,DSLZVSRJTYRBFB-YCAKELIYSA-N,0.1999
l-altraric acid,,O[C@@H]([C@@H](O)[C@@H](O)C(O)=O)[C@@H](O)C(O)=O,DSLZVSRJTYRBFB-GJPGBQJBSA-N,0.1999
procion blue mx-r,,Nc1c(cc(Nc2ccc(c(Nc3nc(Cl)nc(Cl)n3)c2)[S](O)(=O)=O)c4C(=O)c5ccccc5C(=O)c14)[S](O)(=O)=O,RTLULCVBFCRQKI-UHFFFAOYSA-N,0.1956
barium acetate,,[Ba++].CC([O-])=O.CC([O-])=O,ITHZDDVSAWDQPZ-UHFFFAOYSA-L,0.1948
"2-methylbenzene-1,3-diol",,Cc1c(O)cccc1O,ZTMADXFOCUXMJE-UHFFFAOYSA-N,0.192772727
"Ethanesulfonic acid, 2-(methylamino)-, N-coco acyl derivs., sodium salts",,[Na+].CNCC[S]([O-])(=O)=O,KKDONKAYVYTWGY-UHFFFAOYSA-M,0.19068814
"acetamide, 2-cyano-",,NC(=O)CC#N,DGJMPUGMZIKDRO-UHFFFAOYSA-N,0.1893
sodium 2-(morpholin-4-yl)ethane-1-sulfonate,,[Na+].[O-][S](=O)(=O)CCN1CCOCC1,IRHWMYKYLWNHTL-UHFFFAOYSA-M,0.188529745
thiourea,,NC(N)=S,UMGDCJDMYOKAJW-UHFFFAOYSA-N,0.188516266
"1h-imidazole-4-sulfonic acid, 5-methyl-",,Cc1[nH]cnc1[S](O)(=O)=O,KGDKWOYOXAFWLV-UHFFFAOYSA-N,0.188
"pentane-2,4-dione",,CC(=O)CC(C)=O,YRKCREAYFQTBPV-UHFFFAOYSA-N,0.186448508
dimethyl carbonate,,COC(=O)OC,IEJIGPNLZYLLBP-UHFFFAOYSA-N,0.185260351
sec-butylamine,,CCC(C)N,BHRZNVHARXXAHW-UHFFFAOYSA-N,0.1851
alpha-methylene butyrolactone,,C=C1CCOC1=O,GSLDEZOOOSBFGP-UHFFFAOYSA-N,0.1844
potassium dihydrogenorthophosphate,,[K+].O[P](O)([O-])=O,GNSKLFRGEWLPPA-UHFFFAOYSA-M,0.184256269
phytic acid,,O[P](O)(=O)O[C@H]1[C@H](O[P](O)(O)=O)[C@@H](O[P](O)(O)=O)[C@H](O[P](O)(O)=O)[C@@H](O[P](O)(O)=O)[C@H]1O[P](O)(O)=O,IMQLKJBTEOYOSI-GPIVLXJGSA-N,0.1804
"2,2-diethyl-1,3-propanediol",,CCC(CC)(CO)CO,XRVCFZPJAHWYTB-UHFFFAOYSA-N,0.1798
"1,3-dihydroxypropan-2-yl octanoate 2,3-dihydroxypropyl octanoate",,CCCCCCCC(=O)OCC(O)CO,GHBFNMLVSPCDGN-UHFFFAOYSA-N,0.179474131
quinic acid,,OC1CC(O)(CC(O)C1O)C(O)=O,AAWZDTNXLSGCEK-UHFFFAOYSA-N,0.179
nadide,,NC(=O)c1ccc[n+](c1)C2OC(CO[P]([O-])(=O)O[P](O)(=O)OCC3OC(C(O)C3O)n4cnc5c(N)ncnc45)C(O)C2O,BAWFJGJZGIEFAR-UHFFFAOYSA-N,0.178204894
sodium 3-[(dimethylcarbamothioyl)sulfanyl]propane-1-sulfonate,,[Na+].CN(C)C(=S)SCCC[S]([O-])(=O)=O,ALXDAYUOWUEKLS-UHFFFAOYSA-M,0.1779036
"sodium 1,4-bis(2-methylpropoxy)-1,4-dioxobutane-2-sulfonate",,[Na+].CC(C)COC(=O)CC(C(=O)OCC(C)C)[S]([O-])(=O)=O,NTWXWSVUSTYPJH-UHFFFAOYSA-M,0.177374321
potassium oxalate,,[K+].[K+].[O-]C(=O)C([O-])=O,IRXRGVFLQOSHOH-UHFFFAOYSA-L,0.1773
butanedinitrile,,N#CCCC#N,IAHFWCOBPZCAEA-UHFFFAOYSA-N,0.175240889
"1h-purine, 6-methyl-",,Cc1ncnc2nc[nH]c12,SYMHUEFSSMBHJA-UHFFFAOYSA-N,0.1735
disodium 3-[[ethyl[4-[[4-[(3-sulphonatophenyl)azo]-1-naphthyl]azo]phenyl]amino]methyl]benzenesulphonate,,[Na+].[Na+].CCN(Cc1cccc(c1)[S]([O-])(=O)=O)c2ccc(cc2)N=Nc3ccc(N=Nc4cccc(c4)[S]([O-])(=O)=O)c5ccccc35,GYGVRMLIQVFLPE-UHFFFAOYSA-L,0.171543767
sodium cyanate,,[Na+].[O-]C#N,ZVCDLGYNFYZZOK-UHFFFAOYSA-M,0.17111691
"acetamide, 2-cyano-n-methyl-n- (methylamino)carb",,CNC(=O)N(C)C(=O)CC#N,DBEIAMRYPAJZHO-UHFFFAOYSA-N,0.1709
sodium 3-(4-methyl-2-nitrophenoxy)propanesulphonate,,[Na+].Cc1ccc(OCCC[S]([O-])(=O)=O)c(c1)[N+]([O-])=O,NYUMEYVVSINMIU-UHFFFAOYSA-M,0.170310359
2-pyridinecarboxamide,,NC(=O)c1ccccn1,IBBMAWULFFBRKK-UHFFFAOYSA-N,0.1685
lead(2+) ion dinitrate,,[Pb++].[O-][N+]([O-])=O.[O-][N+]([O-])=O,RLJMLMKIBZAXJO-UHFFFAOYSA-N,0.166535451
calcium bis((2S)-5-oxopyrrolidine-2-carboxylate),,[Ca++].[O-]C(=O)C1CCC(=O)N1,DPKBGUHEYKGWSC-UHFFFAOYSA-M,0.165147848
"(3-{3,5-bis[3-(dimethylamino)propyl]-1,3,5-triazinan-1-yl}propyl)dimethylamine",,CN(C)CCCN1CN(CCCN(C)C)CN(CCCN(C)C)C1,FZQMJOOSLXFQSU-UHFFFAOYSA-N,0.16421307
"d-glucuronic acid, .gamma.-lactone",,O[C@@H](C=O)[C@H]1OC(=O)[C@@H](O)[C@H]1O,UYUXSRADSPPKRZ-SKNVOMKLSA-N,0.1641
trisodium 2-hydroxy-5-({5-methyl-4-[(4-nitro-2-sulfonatophenyl)diazenyl]-2-(3-sulfonatopropoxy)phenyl}diazenyl)benzoate,,[Na+].[Na+].[Na+].Cc1cc(N\N=C\2C=CC(=O)C(=C2)C([O-])=O)c(OCCC[S]([O-])(=O)=O)cc1N=Nc3ccc(cc3[S]([O-])(=O)=O)[N+]([O-])=O,NVTFYQAUYQYBHO-WULDFMMKSA-K,0.161450613
"2-propanol, 1-chloro-2-methyl-",,CC(C)(O)CCl,JNOZGFXJZQXOSU-UHFFFAOYSA-N,0.1602
octylsulfanylmethanimidamide,,CCCCCCCCSC(=N)N,VBTYZGFHHOXNGB-UHFFFAOYSA-N,0.16
(2Z)-4-{2-[2-(2-{[(2Z)-3-carboxyprop-2-enoyl]oxy}ethoxy)ethoxy]ethoxy}-4-oxobut-2-enoic acid,,OC(=O)\C=C/C(=O)OCCOCCOCCOC(=O)\C=C/C(O)=O,JWAZLOQEHBHDGM-CCAGOZQPSA-N,0.159532562
"benzeneacetic acid, .alpha.-hydroxy-, (s)-",,O[C@H](C(O)=O)c1ccccc1,IWYDHOAUDWTVEP-ZETCQYMHSA-N,0.1592
"3-(aminomethyl)-3,5,5-trimethylcyclohexan-1-amine",,Cc1ccc(cc1)[S](O)(=O)=O.CC2(C)CC(N)CC(C)(CN)C2,ZBVBXDSQFYHMPD-UHFFFAOYSA-N,0.157298187
"octahydrocyclopenta[c]pyrrole-1,3-dione",,O=C1NC(=O)C2CCCC12,QCWDCTDYSDJKTP-UHFFFAOYSA-N,0.155357382
butabarbital sodium,,[Na+].CCC(C)C1(CC)C(=O)NC(=O)[N-]C1=O,QORQZMBCPRBCAB-UHFFFAOYSA-M,0.1528
ethyl formate,,CCOC=O,WBJINCZRORDGAQ-UHFFFAOYSA-N,0.151494188
acrylonitrile,,C=CC#N,NLHHRLWOUZZQLW-UHFFFAOYSA-N,0.1474
3-morpholin-4-yloxadiazol-3-ium-5-amine chloride,,[Cl-].Nc1cn(n[o+]1)N2CCOCC2,ZRFWHHCXSSACAW-UHFFFAOYSA-M,0.147198317
manganese(2+) ion hydrogen phosphate,,[Mn++].O[P]([O-])([O-])=O,CPSYWNLKRDURMG-UHFFFAOYSA-L,0.14554717
strontium acetate,,[Sr++].CC([O-])=O.CC([O-])=O,RXSHXLOMRZJCLB-UHFFFAOYSA-L,0.1446
trisodium 2-({2-[bis(carboxylatomethyl)amino]ethyl}(2-hydroxyethyl)amino)acetate,,[Na+].[Na+].[Na+].OCCN(CCN(CC([O-])=O)CC([O-])=O)CC([O-])=O,WHNXAQZPEBNFBC-UHFFFAOYSA-K,0.144421539
sodium 2-butyloctyl sulfate,,[Na+].CCCCCCC(CCCC)CO[S]([O-])(=O)=O,QHVJMQSXCDOHMT-UHFFFAOYSA-M,0.142087324
Piperacillin,CAS61477-96-1,CCN1CCN(C(=O)N[C@@H](C(=O)N[C@@H]2C(=O)N3[C@@H](C(=O)O)C(C)(C)S[C@H]23)c2ccccc2)C(=O)C1=O,IVBHGBMCVLDMKU-GXNBUGAJSA-N,0.14
Codeine Monohydrate,CAS6059-47-8,COc1ccc2c3c1O[C@H]1[C@@H](O)C=C[C@H]4[C@@H](C2)N(C)CC[C@]314.O,WRRSFOZOETZUPG-FFHNEAJVSA-N,0.14
1h-imidazole-4-sulfonic acid,,O[S](=O)(=O)c1c[nH]cn1,BONRIQWDXHCVOH-UHFFFAOYSA-N,0.1304
(4-acetamidophenyl) dihydrogen phosphate,,CC(=O)NC1=CC=C(OP(O)(=O)O)C=C1,PSQWZQGQIUGIRU-UHFFFAOYSA-N,0.13
Cobalt sulfate heptahydrate,,O.O.O.O.O.O.O.[Co++].[O-][S]([O-])(=O)=O,MEYVLGVRTYSQHI-UHFFFAOYSA-L,0.12713323
"2-bromo-2-nitropropane-1,3-diol",,OCC(Br)(CO)[N+]([O-])=O,LVDKZNITIUWNER-UHFFFAOYSA-N,0.127130857
2-methylbutan-2-ol,,CCC(C)(C)O,MSXVEPNJUHWQHW-UHFFFAOYSA-N,0.126659691
"1h-pyrrole, 2,3-dihydro-1,5-dimethyl-",,CN1CCC=C1C,MFGQUMAXNNHCNG-UHFFFAOYSA-N,0.1265
disodium sulfate,,[Na+].[Na+].[O-][S]([O-])(=O)=O,PMZURENOXWZQFD-UHFFFAOYSA-L,0.126333765
calcium methionate,,[Ca++].[O-][S](=O)(=O)C[S]([O-])(=O)=O,RPHZRUDLEUBFCM-UHFFFAOYSA-L,0.1255
barium(2+) ion diphosphinate,,[Ba++].[O-]P=O.[O-]P=O,OWESJVSXFRLVFC-UHFFFAOYSA-L,0.123663372
"2-pyrimidinecarboxamide, 4,6-dimethyl-",,Cc1cc(C)nc(n1)C(N)=O,GQSYNOBFTDVBDM-UHFFFAOYSA-N,0.1216
calcium diformate,,[Ca++].[O-]C=O.[O-]C=O,CBOCVOKPQGJKKJ-UHFFFAOYSA-L,0.121211094
dopamine;  3-hydroxytyramine,,NCCC1=CC(=C(O)C=C1)O,VYFYYTLLBUKUHU-UHFFFAOYSA-N,0.12
tetrasodium 2-({2-[bis(carboxylatomethyl)amino]ethyl}(carboxylatomethyl)amino)acetate,,[Na+].[Na+].[Na+].[Na+].[O-]C(=O)CN(CCN(CC([O-])=O)CC([O-])=O)CC([O-])=O,UEUXEKPTXMALOB-UHFFFAOYSA-J,0.118989877
(2S)-2-hydroxy-3-(phenylamino)propane-1-sulfonate,,O[C@@H](CNc1ccccc1)C[S]([O-])(=O)=O,CLEVULOKVPBHCU-VIFPVBQESA-M,0.11878449
3-methylbut-2-enal,,CC(C)=CC=O,SEPQTYODOKLVSB-UHFFFAOYSA-N,0.116503747
Bupropion,CAS34841-39-9,CC(NC(C)(C)C)C(=O)c1cccc(Cl)c1,SNPPWIUOZRMYNY-UHFFFAOYSA-N,0.11
"d-glucose, 2-deoxy-2-[(ethoxycarbonyl)amino]-",,CCOC(=O)N[C@@H](C=O)[C@@H](O)[C@H](O)[C@H](O)CO,HFLAZFSCYHSMQS-LXGUWJNJSA-N,0.1139
3-cyanopyridine,,N#Cc1cccnc1,GZPHSAQLYPIAIN-UHFFFAOYSA-N,0.1128
(2S)-2-aminopentanedioic acid; 2-(bis(2-hydroxyethyl)amino)ethanol,,N[C@@H](CCC(O)=O)C(O)=O.OCCN(CCO)CCO,TUBPSFQENHCYBW-HVDRVSQOSA-N,0.111437809
Flurazepam,CAS17617-23-1,CCN(CC)CCN1C(=O)CN=C(c2ccccc2F)c2cc(Cl)ccc21,SAADBVWGJQAEFS-UHFFFAOYSA-N,0.11
"sodium 1,4-bis[(4-methylpentan-2-yl)oxy]-1,4-dioxobutane-2-sulfonate",,[Na+].CC(C)CC(C)OC(=O)CC(C(=O)OC(C)CC(C)C)[S]([O-])(=O)=O,BTJYKXPSPBJJDQ-UHFFFAOYSA-M,0.109625935
sodium hydrogen-5-sulphoisophthalate,,[Na+].OC(=O)c1cc(cc(c1)[S]([O-])(=O)=O)C(O)=O,YXTFRJVQOWZDPP-UHFFFAOYSA-M,0.109395948
lithium dodecyl sulfate,,[Li+].CCCCCCCCCCCCO[S]([O-])(=O)=O,YFVGRULMIQXYNE-UHFFFAOYSA-M,0.10896299
sodium 2-phenoxyacetate,,[Na+].[O-]C(=O)COc1ccccc1,WPTJBFNYRRZIDZ-UHFFFAOYSA-M,0.108595705
Vinorelbine Tartrate,CAS125317-39-7,CCC1=C[C@H]2CN(C1)Cc1c([nH]c3ccccc13)[C@@](C(=O)OC)(c1cc3c(cc1OC)N(C)[C@H]1[C@@](O)(C(=O)OC)[C@H](OC(C)=O)[C@]4(CC)C=CCN5CC[C@]31[C@@H]54)C2.O=C(O)[C@H](O)[C@@H](O)C(=O)O.O=C(O)[C@H](O)[C@@H](O)C(=O)O,CILBMBUYJCWATM-LNLXBTRNSA-N,0.11
inositol monophosphate,,OC1C(O)C(O)C(O[P](O)(O)=O)C(O)C1O,INAPMGSXUVUWAF-UHFFFAOYSA-N,0.1076
oxamyl,,CNC(=O)O\N=C(SC)\C(=O)N(C)C,KZAUOCCYDRDERY-UITAMQMPSA-N,0.1062
Oxamyl,,CNC(=O)ON=C(SC)C(=O)N(C)C,KZAUOCCYDRDERY-UHFFFAOYSA-N,0.106
Trospium Chloride,CAS10405-02-4,O=C(O[C@@H]1C[C@@H]2CC[C@H](C1)[N+]21CCCC1)C(O)(c1ccccc1)c1ccccc1.[Cl-],RVCSYOQWLPPAOA-QKYUOBHYSA-M,0.11
azanium; 2-[3-[bis(2-oxido-2-oxoethyl)amino]propyl-(2-oxido-2-oxoethyl)amino]acetate; iron(+3) cation,,[NH4+].[Fe+3].[O-]C(=O)CN(CCCN(CC([O-])=O)CC([O-])=O)CC([O-])=O,HXPRIPOCSQBZIN-UHFFFAOYSA-K,0.105005622
tempone,,CC1(C)CC(=O)CC(C)(C)N1[O],WSGDRFHJFJRSFY-UHFFFAOYSA-N,0.10341255
sodium decyl sulfate,,[Na+].CCCCCCCCCCO[S]([O-])(=O)=O,XZTJQQLJJCXOLP-UHFFFAOYSA-M,0.102988053
Mecamylamine,CAS826-39-1,CNC1(C)[C@H]2CC[C@H](C2)C1(C)C.Cl,PKVZBNCYEICAQP-CIISUUNXSA-N,0.1
1-(diethylamino)propan-2-ol,,CCN(CC)CC(C)O,BHUXAQIVYLDUQV-UHFFFAOYSA-N,0.102111364
tert-butyl  carbamate,,CC(C)(C)OC(N)=O,LFKDJXLFVYVEFG-UHFFFAOYSA-N,0.1
glycylglycine,,NCC(=O)NCC(O)=O,YMAWOPBAYDPSLA-UHFFFAOYSA-N,0.1
dimorpholamine,,CCCCN(CCN(CCCC)C(=O)N1CCOCC1)C(=O)N2CCOCC2,HZTMGWSBSDLALI-UHFFFAOYSA-N,0.0985
Chlorpromazine,CAS50-53-3,CN(C)CCCN1c2ccccc2Sc2ccc(Cl)cc21,ZPEIMTDSQAKGNT-UHFFFAOYSA-N,0.1
trimethyl-3-[(1-oxo-10-undecenyl)amino]propylammonium methyl sulphate,,CO[S]([O-])(=O)=O.C[N+](C)(C)CCCNC(=O)CCCCCCCCC=C,MQMUSWOUVRONBK-UHFFFAOYSA-N,0.094063213
"2,3-dimethylpyridine",,Cc1cccnc1C,HPYNZHMRTTWQTB-UHFFFAOYSA-N,0.0938
sodium succinate,,[Na+].[Na+].[O-]C(=O)CCC([O-])=O,ZDQYSKICYIVCPN-UHFFFAOYSA-L,0.0914
"2-butanol, 4,4-diethoxy-",,CCOC(CC(C)O)OCC,PZFICWWBEDKOSI-UHFFFAOYSA-N,0.0909
3-methyloxolane,,CC1CCOC1,LJPCNSSTRWGCMZ-UHFFFAOYSA-N,0.090131249
3-methyladipic  acid,,CC(CCC(O)=O)CC(O)=O,SYEOWUNSTUDKGM-UHFFFAOYSA-N,0.09
dilithium adipate,,[Li+].[Li+].[O-]C(=O)CCCCC([O-])=O,ZPJGNHUPXGDASP-UHFFFAOYSA-L,0.084622153
"sodium 1-(3,4-dihydro-6-methyl-2,4-dioxo-2H-pyran-3-ylidene)ethanolate",,[Na+].CC(=O)[C-]1C(=O)OC(=CC1=O)C,YIOCQGHBBNGBND-UHFFFAOYSA-N,0.084561332
1-methoxypropan-2-yl acetate,,COCC(C)OC(C)=O,LLHKCFNBLRBOGN-UHFFFAOYSA-N,0.083023239
n-(3-chlorallyl) hexaminium chloride,,[Cl-].Cl/C=C/C[N+]12CN3CN(CN(C3)C1)C2,UKHVLWKBNNSRRR-TYYBGVCCSA-M,0.0829
disodium 4-[(2-methylnonyl)oxy]-4-oxo-3-sulfonatobutanoate,,[Na+].[Na+].CC(C)CCCCCCCO.OC(=O)CC(C(O)=O)[S](O)(=O)=O,YBNSWAFWAWIDJZ-UHFFFAOYSA-N,0.08106542
2-ethyloxirane,,CCC1CO1,RBACIKXCRWGCBB-UHFFFAOYSA-N,0.080542298
"6-(2-hydroxyethyl)amino-7-methyl-3,7-dihydro-2h-purin-2-one",,C[N]1C=NC2=C1C(=NC(=O)N2)NCCO,NRFNHVNHUCNPFW-UHFFFAOYSA-N,0.08
2-amino-3-(3-methylimidazol-4-yl)propanoic acid,,CN1C=NC=C1CC(N)C(=O)O,JDHILDINMRGULE-UHFFFAOYSA-N,0.08
oxalic acid,,OC(=O)C(O)=O,MUBZPKHOEPUJKR-UHFFFAOYSA-N,0.07901721
"2-propanol, 1,1-dinitro-",,CC(O)C([N+]([O-])=O)[N+]([O-])=O,KRCTVRKGIUYGJG-UHFFFAOYSA-N,0.0789
chlorosuccinic acid,,OC(=O)CC(Cl)C(O)=O,QEGKXSHUKXMDRW-UHFFFAOYSA-N,0.0767
(aminooxy)sulfonic acid,,NO[S](O)(=O)=O,DQPBABKTKYNPMH-UHFFFAOYSA-N,0.07528272
"benzyldimethyl(2-{2-[4-(2,4,4-trimethylpentan-2-yl)phenoxy]ethoxy}ethyl)azanium chloride",,[Cl-].CC(C)(C)CC(C)(C)c1ccc(OCCOCC[N+](C)(C)Cc2ccccc2)cc1,UREZNYTWGJKWBI-UHFFFAOYSA-M,0.072909649
"l-histidine, 3-methyl-",,Cn1cncc1C[C@H](N)C(O)=O,JDHILDINMRGULE-LURJTMIESA-N,0.0727
"2,5-dimethyltetrahydrofuran",,CC1CCC(C)O1,OXMIDRBAFOEOQT-UHFFFAOYSA-N,0.0723
zinc(2+) ion sulfate,,O.[Zn++].[O-][S]([O-])(=O)=O,RNZCSKGULNFAMC-UHFFFAOYSA-L,0.070295432
acetic anhydride,,CC(=O)OC(C)=O,WFDIJRYMOXRFFG-UHFFFAOYSA-N,0.0702
phenyl_hydrazine,,N(N)c(cccc1)c1,HKOOXMFOFWEVGF-UHFFFAOYSA-N,0.07
oxygen,,O=O,MYMOFIZGZYHOMD-UHFFFAOYSA-N,0.0691
Promazine,CAS58-40-2,CN(C)CCCN1c2ccccc2Sc2ccccc21,ZGUGWUXLJSTTMA-UHFFFAOYSA-N,0.07
2-(acetyloxy)ethyl acetate,,CC(=O)OCCOC(C)=O,JTXMVXSTHSMVQF-UHFFFAOYSA-N,0.068474963
"3-hydroxy-2,2-dimethylpropyl 3-hydroxy-2,2-dimethylpropanoate",,CC(C)(CO)COC(=O)C(C)(C)CO,SZCWBURCISJFEZ-UHFFFAOYSA-N,0.068201817
dl-allothreonine,,CC(O)C(N)C(O)=O,AYFVYJQAPQTCCC-UHFFFAOYSA-N,0.067
bromoacetamide,,NC(=O)CBr,JUIKUQOUMZUFQT-UHFFFAOYSA-N,0.0643
7-Methylpteridine,,c1c(C)nc2cncnc2n1,IQCHKMQERZPOIJ-UHFFFAOYSA-N,0.06
2-butanone oxime,,CC\C(C)=N\O,WHIVNJATOVLWBW-SNAWJCMRSA-N,0.0599
sodium hydrogen carbonate,,[Na+].OC([O-])=O,UIIMBOGNXHQVGW-UHFFFAOYSA-M,0.057960927
(2S)-2-amino-6-octanamidohexanoic acid,,CCCCCCCC(=O)NCCCC[C@H](N)C(O)=O,DUZODDYGMSCYMJ-LBPRGKRZSA-N,0.057570824
"1,4-bis({3-[2-(2-hydroxyethoxy)ethoxy]propyl}amino)-9,10-dihydroanthracene-9,10-dione",,OCCOCCOCCCNc1ccc(NCCCOCCOCCO)c2C(=O)c3ccccc3C(=O)c12,FRFQXYOWMSJIJR-UHFFFAOYSA-N,0.057188696
"1,2-benzenedimethanol",,OCc1ccccc1CO,XMUZQOKACOLCSS-UHFFFAOYSA-N,0.0569
2-methylprop-2-enoic acid,,CC(=C)C(O)=O,CERQOIWHTDAKMF-UHFFFAOYSA-N,0.056273368
"1,1,4,4-tetramethoxy-but-2-ene",,COC(OC)\C=C/C(OC)OC,ZFGVCDSFRAMNMT-WAYWQWQTSA-N,0.055
"o1,o3-diisopropyl-glycerol",,CC(C)OCC(O)COC(C)C,AJJGRBMYVRSEES-UHFFFAOYSA-N,0.0549
"D-Glucitol, propoxylated",,OCCCOCC(OCCCO)C(OCCCO)C(OCCCO)C(COCCCO)OCCCO,OJZGCEDLMNSDNY-UHFFFAOYSA-N,0.053341445
"2-pyrrolidinone, 1-nitroso-",,O=NN1CCCC1=O,KLZYCEYOOVIITI-UHFFFAOYSA-N,0.0523
trisodium hydrogen carbonate carbonate,,[Na+].[Na+].[Na+].OC([O-])=O.[O-]C([O-])=O,WCTAGTRAWPDFQO-UHFFFAOYSA-K,0.050861362
2-[(prop-2-en-1-yloxy)methyl]oxirane,,C=CCOCC1CO1,LSWYGACWGAICNM-UHFFFAOYSA-N,0.049756882
Isoniazid,CAS54-85-3,NNC(=O)c1ccncc1,QRXWMOHMRWLFEY-UHFFFAOYSA-N,0.05
2-methoxyethyl prop-2-enoate,,COCCOC(=O)C=C,HFCUBKYHMMPGBY-UHFFFAOYSA-N,0.043941678
"N,N-bis(carboxymethyl)-L-glutamic acid",,OC(=O)CCC(N(CC(O)=O)CC(O)=O)C(O)=O,VCVKIIDXVWEWSZ-UHFFFAOYSA-N,0.043603804
diethyl sulfone,,CC[S](=O)(=O)CC,MBDUIEKYVPVZJH-UHFFFAOYSA-N,0.0433
barium(2+) ion dichloride,,O.O.[Cl-].[Cl-].[Ba++],PWHCIQQGOQTFAE-UHFFFAOYSA-L,0.041892815
"methanesulfonamide, n-(methylsulfonyl)-",,C[S](=O)(=O)N[S](C)(=O)=O,ICTGBOFCIDHVPA-UHFFFAOYSA-N,0.0402
2-methylpropanol,,OCC(C)C,ZXEKIIBDNHEJCQ-UHFFFAOYSA-N,0.04
"5,5-dimethylimidazolidine-2,4-dione",,CC1(C)NC(=O)NC1=O,YIROYDNZEPTFOL-UHFFFAOYSA-N,0.03847382
(2E)-but-2-enoic acid,,C/C=C/C(O)=O,LDHQCZJRKDOVOX-NSCUHMNNSA-N,0.038175146
sodium 4-aminobenzene-1-sulfonate,,[Na+].Nc1ccc(cc1)[S]([O-])(=O)=O,KSVSZLXDULFGDQ-UHFFFAOYSA-M,0.037955415
bis(propan-2-yl)amine,,CC(C)NC(C)C,UAOMVDZJSHZZME-UHFFFAOYSA-N,0.036242214
"2,3-dimethyl-2,3-dihydro-1h-imidazo[5,1b]quinazolin-9-one; 2,3-dimethylimidazoquinazolone",,CC1N(C)CN2C(=O)C3=C(C=CC=C3)N=C12,GYHGUZNRWIIXIG-UHFFFAOYSA-N,0.03
2-acetamido-4-methylsulfanylbutanoic acid,,CSCCC(NC(C)=O)C(=O)O,XUYPXLNMDZIRQH-UHFFFAOYSA-N,0.03
"1,3-dimethyl propanedioate",,COC(=O)CC(=O)OC,BEPAFCGSDWSTEL-UHFFFAOYSA-N,0.027341968
tranexamic acid,,NCC1CCC(CC1)C(O)=O,GYDJEQRTZSCIOI-UHFFFAOYSA-N,0.0255
manganese(2+) ion disodium 2-({2-[bis(carboxylatomethyl)amino]ethyl}(carboxylatomethyl)amino)acetate,,[Na+].[Na+].[Mn++].[O-]C(=O)CN(CCN(CC([O-])=O)CC([O-])=O)CC([O-])=O,ZQHKAIDDHTYINE-UHFFFAOYSA-J,0.024802502
Leucovorin; Folinic Acid,PubChemCID135403648,C1C(N(C2=C(N1)N=C(NC2=O)N)C=O)CNC3=CC=C(C=C3)C(=O)NC(CCC(=O)O)C(=O)O,VVIAGPKUTFNRDU-UHFFFAOYSA-N,0.02
"5-ethyl-5-methyl-2,4-oxazolidinedione",,CCC1(C)OC(=O)NC1=O,MGHNWMRNFGYJKE-UHFFFAOYSA-N,0.0203
"1,1,1,3,3,3-hexafluoropropan-2-ol",,OC(C(F)(F)F)C(F)(F)F,BYEAHWXPCBROCE-UHFFFAOYSA-N,0.020110333
pteridine,,C1=NC2=C(N=C1)N=CN=C2,CPNGPNLZQNNVQM-UHFFFAOYSA-N,0.02
7-propyltheophylline,,CCC[N]1C=NC2=C1C(=O)N(C)C(=O)N2C,HGFWMGARSDHJFP-UHFFFAOYSA-N,0.02
"D-Xylose, (aminocarbonyl)hydrazone",,NC(=O)NN=CC(O)C(O)C(O)CO,HJUOUZOJKPIETD-UHFFFAOYSA-N,0.02
"2,5-dimethylpiperazine-1,4-dicarboximidamide",,CC1CN(C(=N)N)C(C)CN1C(=N)N,QLZCZJVQGUKZPE-UHFFFAOYSA-N,0.02
1-penten-3-ol,,CCC(O)C=C,VHVMXWZXFBOANQ-UHFFFAOYSA-N,0.0193
3-methylbut-3-en-1-ol,,CC(=C)CCO,CPJRRXSHAYUTGL-UHFFFAOYSA-N,0.019067893
2-[1-(aminomethyl)cyclohexyl]acetic acid hydrochloride,,[H+].[Cl-].NCC1(CCCCC1)CC(O)=O,XBUDZAQEMFGLEU-UHFFFAOYSA-N,0.019021146
4-(aminomethyl)-2-methoxyphenol hydrochloride,,[Cl].COc1cc(CN)ccc1O,LOYPVODLNGWOLM-UHFFFAOYSA-N,0.018846252
sodium dithionite,,[Na+].[Na+].[O-][S](=O)[S]([O-])=O,JVBXVOWTABLYPX-UHFFFAOYSA-L,0.018292129
"{[5-(6-amino-9H-purin-9-yl)-3,4-dihydroxyoxolan-2-yl]methoxy}[({[hydroxy(sodiooxy)phosphoryl]oxy}(sodiooxy)phosphoryl)oxy]phosphinic acid",,[Na+].[Na+].Nc1ncnc2n(cnc12)[C@@H]3O[C@H](CO[P](O)(=O)O[P]([O-])(=O)O[P](O)([O-])=O)[C@@H](O)[C@H]3O,TTWYZDPBDWHJOR-IDIVVRGQSA-L,0.016887962
3-methylpent-1-yn-3-ol,,CCC(C)(O)C#C,QXLPXWSKPNOQLE-UHFFFAOYSA-N,0.016731992
n-nitrosodiethylamine,,CCN(CC)N=O,WBNQDOYYEUMPFS-UHFFFAOYSA-N,0.0161
3-penten-2-ol,,C/C=C/C(C)O,GJYMQFMQRRNLCY-ONEGZZNKSA-N,0.0152
aucubin,,OC[C@H]1O[C@@H](O[C@@H]2OC=C[C@H]3[C@H](O)C=C(CO)[C@@H]23)[C@H](O)[C@@H](O)[C@@H]1O,RJWJHRPNHPHBRN-FKVJWERZSA-N,0.0119
amino(imino)methanaminium nitrate,,NC(N)=N.O[N+]([O-])=O,CNUNWZZSUJPAHX-UHFFFAOYSA-N,0.010251263
"shikimic  acid;  1-carboxy-3,4,5-trihydroxy-1-cyclohexene",,OC1CC(=CC(O)C1O)C(O)=O,JXOHGGNKMLTUBP-UHFFFAOYSA-N,0.01
2-acetamido-3-(4-hydroxyphenyl)propanoic acid,,CC(=O)NC(CC1=CC=C(O)C=C1)C(=O)O,CAHKINHBCWCHCF-UHFFFAOYSA-N,0.01
3-bromopropanol,,OCCCBr,RQFUZUMFPRMVDX-UHFFFAOYSA-N,0.0093
acrylic acid,,OC(=O)C=C,NIXOWILDQLNWCW-UHFFFAOYSA-N,0.00596733
1-ethenylsulfanylethanol,,CC(O)SC=C,XBSXOHLQFBHTPM-UHFFFAOYSA-N,0.005493119
benzoate; diaminomethylideneazanium,,N[C+](N)N.[O-]C(=O)c1ccccc1,KNBXROBXQPEXAM-UHFFFAOYSA-M,0.005016256
sulfanylidenestrontium,,S=[Sr],XXCMBPUMZXRBTN-UHFFFAOYSA-N,0.003660289
thiotepa,,S=[P](N1CC1)(N2CC2)N3CC3,FOCVUCIESVLUNU-UHFFFAOYSA-N,0.0018
nickel(2+) ion diacetate,,[Ni++].CC([O-])=O.CC([O-])=O,AIYYMMQIMJOTBM-UHFFFAOYSA-L,0.00053768
adrenaline tartrate (1:1),,CNC[C@H](O)c1ccc(O)c(O)c1.O[C@H]([C@@H](O)C(O)=O)C(O)=O,YLXIPWWIOISBDD-NDAAPVSOSA-N,0
l(+)-arginine,,NC(CCCNC(N)=N)C(O)=O,ODKSFYDXXFIFQN-UHFFFAOYSA-N,0
4-ethylpyridine,,CCc1ccncc1,VJXRKZJMGVSXPX-UHFFFAOYSA-N,-0.0006
sodium fluoride,,[F-].[Na+],PUZPDOWCWNUUKD-UHFFFAOYSA-M,-0.002187262
2-(methylamino)-1-phenylpropan-1-ol hydrochloride,,[Cl-].CN[C@@H](C)[C@H](O)c1ccccc1.[H+],BALXUFOVQVENIU-GNAZCLTHSA-N,-0.003669443
"4-amino-3,6-dichloropyridine-2-carboxylic acid",,Nc1cc(Cl)nc(C(O)=O)c1Cl,NIXXQNOQHKNPEJ-UHFFFAOYSA-N,-0.004250052
"thiourea, cyano-",,NC(=S)NC#N,SSGODMHQNTWPOX-UHFFFAOYSA-N,-0.0049
"di-d-fructofuranose 1,2':2,1'-dianhydride",,OC[C@H]1OC2(COC3(CO2)O[C@H](CO)[C@@H](O)[C@@H]3O)[C@@H](O)[C@@H]1O,DKOQIDXJOZQKIG-NCEFIRPQSA-N,-0.0058
benzyltriethylazanium chloride,,[Cl-].CC[N+](CC)(CC)Cc1ccccc1,HTZCNXWZYVXIMZ-UHFFFAOYSA-M,-0.007265664