Name,ID,SMILES,inchi,LogS
"2-cyclopenta[c]pyran-4-carboxylic acid, 1-(-d-g",,COC(=O)C1=CO[C@@H](O[C@@H]2O[C@H](CO)[C@@H](O)[C@H](O)[C@H]2O)[C@@H]3[C@@H](C)[C@@H](O)C[C@H]13,AMBQHHVBBHTQBF-UOUCRYGSSA-N,-0.5911
"benzenebutanoic acid, 4-methoxy--oxo-",,COc1ccc(cc1)C(=O)CCC(O)=O,OMTDIBZSUZNVJK-UHFFFAOYSA-N,-1.0632
"-d-glucofuranose, 1,2:5,6-bis-o-(1-methylethyli",,CC(=O)O[C@H]1[C@H](O[C@@H]2OC(C)(C)O[C@H]12)[C@H]3COC(C)(C)O3,QZKDRLZSJSWQPS-RMPHRYRLSA-N,-1.5229
"d-glycero-d-gulo-heptopyranoside, phenyl, -",,OCC(O)C1OC(Oc2ccccc2)C(O)C(O)C1O,UWYXADYVSWKWAX-UHFFFAOYSA-N,-1.5537
"1-naphthalenepropanoic acid, .beta.-amino-, ()",,[NH3+][C@H](CC([O-])=O)c1cccc2ccccc12,BIOQBKBTOAMMDG-GFCCVEGCSA-N,-1.5902
"androstane-3beta,11beta-diol-17-one; androstane-3,11-diol-17-one;",,CC12CCC(O)CC1CCC3C4CCC(=O)C4(C)CC(O)C23,PIXFHVWJOVNKQK-UHFFFAOYSA-N,-3.59