Name,ID,SMILES,inchi,LogS
"d-gluconic acid, hydrazide",,NNC(=O)C(O)C(O)C(O)C(O)CO,DSSOAANULUSBGQ-UHFFFAOYSA-N,-0.4985
2-methyl-2-pentanol,,CCCC(C)(C)O,WFRBDWRZVBPBDO-UHFFFAOYSA-N,-0.4988
Oxycodone,CAS76-42-6,CN1CCC23C4C(=O)CCC2(C1CC5=C3C(=C(C=C5)OC)O4)O,BRUQQQPBMZOVGD-UHFFFAOYSA-N,-0.5
"2-furancarboxaldehyde, 5-(methoxymethyl)-",,COCc1oc(C=O)cc1,ASHVULSQMDWKFO-UHFFFAOYSA-N,-0.4992
Amikacin,,NCCC(O)C(=O)NC2CC(N)C(OC1OC(CN)C(O)C(O)C1O)C(O)C2OC3OC(CO)C(O)C(N)C3O,LKCWBDHBTVXHDL-UHFFFAOYSA-N,-0.5
2-(2-{2-[2-(prop-2-enoyloxy)ethoxy]ethoxy}ethoxy)ethyl prop-2-enoate,,C=CC(=O)OCCOCCOCCOCCOC(=O)C=C,HCLJOFJIQIJXHS-UHFFFAOYSA-N,-0.500013296
amikacin,,NCC[C@H](O)C(=O)N[C@@H]1C[C@H](N)[C@@H](O[C@H]2O[C@H](CN)[C@@H](O)[C@H](O)[C@H]2O)[C@H](O)[C@H]1O[C@H]3O[C@H](CO)[C@@H](O)[C@H](N)[C@H]3O,LKCWBDHBTVXHDL-RMDFUYIESA-N,-0.5004
"tetrasodium 5-({4-chloro-6-[ethyl(phenyl)amino]-1,3,5-triazin-2-yl}amino)-3-[(E)-2-(1,5-disulfonatonaphthalen-2-yl)diazen-1-yl]-4-hydroxynaphthalene-2,7-disulfonate",,[Na+].[Na+].[Na+].[Na+].CCN(c1ccccc1)c2nc(Cl)nc(Nc3cc(cc4cc(c(N=Nc5ccc6c(cccc6[S]([O-])(=O)=O)c5[S]([O-])(=O)=O)c(O)c34)[S]([O-])(=O)=O)[S]([O-])(=O)=O)n2,DSVQPTKJDZFKIP-UHFFFAOYSA-J,-0.50252635
(2S)-2-amino-3-methylpentanoic acid,,CC[C@H](C)[C@H](N)C(O)=O,AGPKZVBTJJNPAG-WHFBIAKZSA-N,-0.502953857
isoleucine,,CCC(C)C(N)C(O)=O,AGPKZVBTJJNPAG-UHFFFAOYSA-N,-0.5033
palladium(2+) dichloride,,[Cl-].[Cl-].[Pd++],PIBWKRNGBLPSSY-UHFFFAOYSA-L,-0.503697626
scopolamine,,CN1[C@@H]2CC(C[C@H]1C3OC23)OC(=O)[C@H](CO)c4ccccc4,STECJAGHUSJQJN-MKXJHAPZSA-N,-0.504
Chloroquine,CAS54-05-7,CCN(CC)CCCC(C)Nc1ccnc2cc(Cl)ccc12,WHTVZRBIWZFKQO-UHFFFAOYSA-N,-0.5
"trisodium 5-oxo-1-(4-sulfonatophenyl)-4-[(E)-2-(4-sulfonatophenyl)diazen-1-yl]-4,5-dihydro-1H-pyrazole-3-carboxylate",,[Na+].[Na+].[Na+].[O-]C(=O)C1=NN(c2ccc(cc2)[S]([O-])(=O)=O)C(=O)C1N=Nc3ccc(cc3)[S]([O-])(=O)=O,UJMBCXLDXJUMFB-UHFFFAOYSA-K,-0.504996401
disodium 2-[carboxymethyl-[2-[carboxymethyl-(2-oxido-2-oxoethyl)amino]ethyl]amino]acetate,,[Na+].[Na+].OC(=O)CN(CCN(CC(O)=O)CC([O-])=O)CC([O-])=O,ZGTMUACCHSMWAC-UHFFFAOYSA-L,-0.505418744
pimelic acid,,OC(=O)CCCCCC(O)=O,WLJVNTCWHIRURA-UHFFFAOYSA-N,-0.5056
Edetate Calcium Disodium,CAS62-33-9,O=C([O-])CN(CCN(CC(=O)[O-])CC(=O)[O-])CC(=O)[O-].[Ca+2].[Na+].[Na+],SHWNNYZBHZIQQV-UHFFFAOYSA-J,-0.51
"4-methylbenzene-1,3-diamine",,Cc1ccc(N)cc1N,VOZKAJLKRJDJLL-UHFFFAOYSA-N,-0.507184532
diaminotoluene,,Cc1cc(N)ccc1N,OBCSAIDCZQSFQH-UHFFFAOYSA-N,-0.507184532
"ethanol, 2-butoxy-, carbamate",,CCCCOCCOC(N)=O,QHHQZURUTXQADT-UHFFFAOYSA-N,-0.5084
nitrilotriacetic acid,,OC(=O)CN(CC(O)=O)CC(O)=O,MGFYIUFZLHCRTH-UHFFFAOYSA-N,-0.5101
"pentasodium 7-(2-{4-[(4-{[5-amino-4-sulfonato-2-(2-{4-[2-(sulfonatooxy)ethanesulfonyl]phenyl}diazen-1-yl)phenyl]amino}-6-chloro-1,3,5-triazin-2-yl)amino]-2-(carbamoylamino)phenyl}diazen-1-yl)naphthalene-1,3,6-trisulfonate",,[Na+].[Na+].[Na+].[Na+].[Na+].NC(=O)Nc1cc(Nc2nc(Cl)nc(Nc3cc(N)c(cc3N=Nc4ccc(cc4)[S](=O)(=O)CCO[S]([O-])(=O)=O)[S]([O-])(=O)=O)n2)ccc1N=Nc5cc6c(cc(cc6[S]([O-])(=O)=O)[S]([O-])(=O)=O)cc5[S]([O-])(=O)=O,TWIRQKNQTOUPOY-UHFFFAOYSA-I,-0.510557544
"l-asparagine, n2-(aminocarbonyl)-",,NC(=O)C[C@H](NC(N)=O)C(O)=O,PMPZMFJQCCSPGS-REOHCLBHSA-N,-0.511
"3,5-dimethylpyridine",,Cc1cncc(C)c1,HWWYDZCSSYKIAD-UHFFFAOYSA-N,-0.5115
"propanamide, 2,3-dichloro-",,NC(=O)C(Cl)CCl,SQGUQSRDWXDLIH-UHFFFAOYSA-N,-0.5138
fluoromethyl sulfone,,C[S](F)(=O)=O,KNWQLFOXPQZGPX-UHFFFAOYSA-N,-0.5145
"l-leucine, n-methyl-",,CN[C@@H](CC(C)C)C(O)=O,XJODGRWDFZVTKW-LURJTMIESA-N,-0.5146
4-methyl-1-penten-3-ol,,CC(C)C(O)C=C,SZKVYEHTIWILMA-UHFFFAOYSA-N,-0.515
Lamivudine,CAS134678-17-4,Nc1ccn([C@@H]2CS[C@H](CO)O2)c(=O)n1,JTEGQNOMFQHVDC-NKWVEPMBSA-N,-0.52
(+)-perseitol,,OC[C@H](O)[C@@H](O)C(O)[C@H](O)[C@H](O)CO,OXQKEKGBFMQTML-RYRJNEICSA-N,-0.517
pentafluorophenol,,OC1=C(F)C(=C(F)C(=C1F)F)F,XBNGYFFABRKICK-UHFFFAOYSA-N,-0.52
n-(hydroxymethyl)benzamide,,OCNC(=O)C1=CC=CC=C1,UOUBPDZUBVJZOQ-UHFFFAOYSA-N,-0.52
"3,5-dimethyl-1H-pyrazole",,Cc1[nH]nc(C)c1,SDXAWLJRERMRKF-UHFFFAOYSA-N,-0.520474498
tri-sec-butanolamine,,CCC(O)CN(CC(O)CC)CC(O)CC,BFIAIMMAHAIVFT-UHFFFAOYSA-N,-0.5229
disodium 2-amino-5-[(4-sulphonatophenyl)azo]benzenesulphonate,,[Na+].[Na+].Nc1ccc(cc1[S]([O-])(=O)=O)N=Nc2ccc(cc2)[S]([O-])(=O)=O,FPVGTPBMTFTMRT-UHFFFAOYSA-L,-0.524323625
dimethyl 2-acetylsuccinate,,COC(=O)CC(C(C)=O)C(=O)OC,XREKLQOUFWBSFH-UHFFFAOYSA-N,-0.524834841
"disodium 4-amino-6-{2-[4-({4-[2-(2,4-diaminophenyl)diazen-1-yl]phenyl}sulfamoyl)phenyl]diazen-1-yl}-5-hydroxy-3-[2-(4-nitrophenyl)diazen-1-yl]naphthalene-2,7-disulfonate",,[Na+].[Na+].Nc1ccc(N=Nc2ccc(N[S](=O)(=O)c3ccc(cc3)N=Nc4c(O)c5c(N)c(N=Nc6ccc(cc6)[N+]([O-])=O)c(cc5cc4[S]([O-])(=O)=O)[S]([O-])(=O)=O)cc2)c(N)c1,UMXKOPCQCFDBHS-UHFFFAOYSA-L,-0.525678621
"2-butenal, 2-methyl-, (e)-",,C\C=C(/C)C=O,ACWQBUSCFPJUPN-HWKANZROSA-N,-0.527
4-fluoroaniline,,Nc1ccc(F)cc1,KRZCOLNOCZKSDF-UHFFFAOYSA-N,-0.527274385
isopropenyl acetate,,CC(=C)OC(C)=O,HETCEOQFVDFGSY-UHFFFAOYSA-N,-0.527751378
1-chloro-2-fluoroethane,,FCCCl,VEZJSKSPVQQGIS-UHFFFAOYSA-N,-0.5291
"d-mannose, (aminocarbonyl)hydrazone",,NC(=O)NN=C[C@@H](O)[C@@H](O)[C@H](O)[C@H](O)CO,NOUQGOYNEGWDCZ-KVTDHHQDSA-N,-0.53
2-[[2-[(2-aminoacetyl)amino]acetyl]amino]acetic acid,,NCC(=O)NCC(=O)NCC(=O)O,XKUKSGPZAADMRA-UHFFFAOYSA-N,-0.53
2-amino-2-(4-hydroxyphenyl)acetic acid,,NC(C(=O)O)C1=CC=C(O)C=C1,LJCWONGJFPCTTL-UHFFFAOYSA-N,-0.53
methoxyethene,,COC=C,XJRBAMWJDBPFIM-UHFFFAOYSA-N,-0.531030497
histidine,,NC(Cc1[nH]cnc1)C(O)=O,HNDVDQJCIGZPNO-UHFFFAOYSA-N,-0.5314
Pentamidine,CAS100-33-4,N=C(N)c1ccc(OCCCCCOc2ccc(C(=N)N)cc2)cc1,XDRYMKDFEDOLFX-UHFFFAOYSA-N,-0.53
disodium 8-(phenylamino)-5-[(E)-2-{4-[(E)-2-(3-sulfonatophenyl)diazen-1-yl]naphthalen-1-yl}diazen-1-yl]naphthalene-1-sulfonate,,[Na+].[Na+].[O-][S](=O)(=O)c1cccc(c1)N=Nc2ccc(N=Nc3ccc(Nc4ccccc4)c5c3cccc5[S]([O-])(=O)=O)c6ccccc26,XPRMZBUQQMPKCR-UHFFFAOYSA-L,-0.532539726
Naltrexone,CAS16590-41-3,O=C1CC[C@@]2(O)[C@H]3Cc4ccc(O)c5c4[C@@]2(CCN3CC2CC2)[C@H]1O5,DQCKKXVULJGBQN-XFWGSAIBSA-N,-0.53
"bis(5-oxo-L-prolinato-N1,O2)zinc",,[Zn++].[O-]C(=O)C1CCC(=O)N1.[O-]C(=O)C2CCC(=O)N2,OWVLYQRCCIEOPF-UHFFFAOYSA-L,-0.534193588
"1-N-(2-hydroxyethyl)-4-methoxybenzene-1,3-bis(aminium) sulfate",,COc1ccc([NH2+]CCO)cc1[NH3+].[O-][S]([O-])(=O)=O,GWHLYFOWAINYAH-UHFFFAOYSA-N,-0.534342295
dioxypyramidon,,CN(C)C(=O)C(=O)N(N(C)C(C)=O)c1ccccc1,IRTZMJWVZQYURE-UHFFFAOYSA-N,-0.5345
2-(butoxymethyl)oxirane; propan-2-amine; trifluoroborane,,CCCCOCC1CO1.CC(C)N.FB(F)F,CXWVMBGMGJTKRX-UHFFFAOYSA-N,-0.53795425
"2,4,6-collidine",,Cc1cc(C)nc(C)c1,BWZVCCNYKMEVEX-UHFFFAOYSA-N,-0.5394
"3,4-piperidinedicarboxylic acid",,OC(=O)C1CCNCC1C(O)=O,UBLWASUIZDSYFN-UHFFFAOYSA-N,-0.5395
l-glutamine,,NC(CCC(N)=O)C(O)=O,ZDXPYRJPNDTMRX-UHFFFAOYSA-N,-0.54
"2-ethyl-1,3-hexandiol",,CCCC(O)C(CC)CO,RWLALWYNXFYRGW-UHFFFAOYSA-N,-0.5418
"benzamide, 2,5-dihydroxy-n-(2-hydroxyethyl)-",,OCCNC(=O)c1cc(O)ccc1O,YNCOLLPSNIHBGO-UHFFFAOYSA-N,-0.5436
"2,5-selenophenedicarboxylic acid, tetrahydro-",,OC(=O)C1CCC([Se]1)C(O)=O,WFKGWJKGEDFLTH-UHFFFAOYSA-N,-0.545
propan-2-yl acetate,,CC(C)OC(C)=O,JMMWKPVZQRWMSS-UHFFFAOYSA-N,-0.546768091
(2S)-2-amino-4-carbamoylbutanoic acid,,N[C@@H](CCC(N)=O)C(O)=O,ZDXPYRJPNDTMRX-VKHMYHEASA-N,-0.548311419
"Ethyl 4-carbamoyl-2,5-dimethyl-1-piperazinecarboxylate",,CCOC(=O)N1CC(C)N(C(N)=O)CC1C,OIYNUXGBWMDNGC-UHFFFAOYSA-N,-0.55
"disodium 4-{4-[(E)-2-[5-(2-bromoprop-2-enamido)-2-sulfonatophenyl]diazen-1-yl]-3-methyl-5-oxo-4,5-dihydro-1H-pyrazol-1-yl}-2,5-dichlorobenzene-1-sulfonate",,[Na+].[Na+].CC1=NN(C(=O)C1N=Nc2cc(NC(=O)C(Br)=C)ccc2[S]([O-])(=O)=O)c3cc(Cl)c(cc3Cl)[S]([O-])(=O)=O,JVURCOFLRNSPQI-UHFFFAOYSA-L,-0.550169975
"oxirane, 2-(chloromethyl)-2-methyl-",,CC1(CCl)CO1,VVHFXJOCUKBZFS-UHFFFAOYSA-N,-0.5504
[2-[[4-[(2-chloro-4-nitrophenyl)azo]phenyl]ethylamino]ethyl](2-hydroxypropyl)dimethylammonium chloride,,[Cl-].CCN(CC[N+](C)(C)CC(C)O)c1ccc(cc1)N=Nc2ccc(cc2Cl)[N+]([O-])=O,ACBFJDARQXVXLX-UHFFFAOYSA-M,-0.551894305
ethyl n-methylnitrosocarbamate,,CCOC(=O)N(C)N=O,CAUBWLYZCDDYEF-UHFFFAOYSA-N,-0.5528
"O,O-diisopropyl hydrogen dithiophosphate",,CC(C)O[P](S)(=S)OC(C)C,SZXCCXFNQHQRGF-UHFFFAOYSA-N,-0.552854708
allyl acetate,,CC(=O)OCC=C,FWZUNOYOVVKUNF-UHFFFAOYSA-N,-0.5534
Ethosuximide,CAS77-67-8,CCC1(C)CC(=O)NC1=O,HAPOVYFOVVWLRS-UHFFFAOYSA-N,-0.56
carbamimidoylsulfinic acid,,NC(=N)[S](O)=O,FYOWZTWVYZOZSI-UHFFFAOYSA-N,-0.556792816
4-vinylpyridine,,C=Cc1ccncc1,KFDVPJUYSDEJTH-UHFFFAOYSA-N,-0.5579
2-[(2-benzamido-2-methylpropanoyl)amino]acetic acid,,CC(C)(NC(=O)C1=CC=CC=C1)C(=O)NCC(=O)O,XREZZEFPCQPYDJ-UHFFFAOYSA-N,-0.56
"leucine, ethyl ester",,CCOC(=O)[C@@H](N)CC(C)C,QIGLJVBIRIXQRN-ZETCQYMHSA-N,-0.5606
ethyl isopropyl ether,,CCOC(C)C,XSJVWZAETSBXKU-UHFFFAOYSA-N,-0.5607
2-{[4-(oxiran-2-ylmethoxy)butoxy]methyl}oxirane,,C(CCOCC1CO1)COCC2CO2,SHKUUQIDMUMQQK-UHFFFAOYSA-N,-0.560813739
4-methylpent-3-en-2-one,,CC(C)=CC(C)=O,SHOJXDKTYKFBRD-UHFFFAOYSA-N,-0.560826234
butyl lactate,,CCCCOC(=O)C(C)O,MRABAEUHTLLEML-UHFFFAOYSA-N,-0.5629
trimethylsilane,,C[Si](C)C,DCERHCFNWRGHLK-UHFFFAOYSA-N,-0.563427685
pivalic acid,,CC(C)(C)C(O)=O,IUGYQRQAERSCNH-UHFFFAOYSA-N,-0.563561886
"disodium 1-amino-9,10-dihydro-9,10-dioxo-4-[[4-[[2-(sulphonatooxy)ethyl]sulphonyl]phenyl]amino]anthracene-2-sulphonate",,[Na+].[Na+].Nc1c2C(=O)c3ccccc3C(=O)c2c(Nc4ccc(cc4)[S](=O)(=O)CCO[S]([O-])(=O)=O)cc1[S]([O-])(=O)=O,JALBGZPFNQMHSM-UHFFFAOYSA-L,-0.563962397
triammonium hexachlororhodate,,[NH4+].[NH4+].[NH4+].[Cl-].[Cl-].[Cl-].[Cl-].[Cl-].[Cl-].[Rh+3],OJNYBYILSUWBHM-UHFFFAOYSA-K,-0.56876707
(E)-1-methyl-3-nitro-2-(oxolan-3-ylmethyl)guanidine,,CN=C(NCC1CCOC1)N[N+]([O-])=O,YKBZOVFACRVRJN-UHFFFAOYSA-N,-0.569414718
hexasodium 4-hydroxy-7-[({5-hydroxy-7-sulfonato-6-[(E)-2-{2-sulfonato-4-[(E)-2-(4-sulfonatophenyl)diazen-1-yl]phenyl}diazen-1-yl]naphthalen-2-yl}carbamoyl)amino]-3-[(E)-2-{2-sulfonato-4-[(E)-2-(4-sulfonatophenyl)diazen-1-yl]phenyl}diazen-1-yl]naphthalene-2-sulfonate,,[Na+].[Na+].[Na+].[Na+].[Na+].[Na+].[O-][S](=O)(=O)c1ccc(cc1)N=Nc2ccc(N\N=C\3C(=O)c4ccc(NC(=O)Nc5ccc6C(=O)C(=N/Nc7ccc(cc7[S]([O-])(=O)=O)N=Nc8ccc(cc8)[S]([O-])(=O)=O)\C(=Cc6c5)[S]([O-])(=O)=O)cc4C=C3[S]([O-])(=O)=O)c(c2)[S]([O-])(=O)=O,LDCKXVAPQFUIOI-ZFLDVXHKSA-H,-0.569498545
Abacavir Sulfate,CAS188062-50-2,Nc1nc(NC2CC2)c2ncn([C@H]3C=C[C@@H](COS(=O)(=O)O)C3)c2n1,HDPSUBZUCMNXAD-SCZZXKLOSA-N,-0.57
[2-[[4-[(2-chloro-4-nitrophenyl)azo]phenyl]ethylamino]ethyl](2-hydroxypropyl)dimethylammonium acetate,,CCN(CC[N+](C)(C)CC(C)O)c1ccc(cc1)N=Nc2ccc(cc2Cl)[N+]([O-])=O.CC([O-])=O,XSFKEMHKDFPDNK-UHFFFAOYSA-M,-0.573145985
2-propyloxirane,,CCCC1CO1,SYURNNNQIFDVCA-UHFFFAOYSA-N,-0.57344678
"cyclobutaneacetic acid, 3-acetyl-2,2-dimethyl-",,CC(=O)C1CC(CC(O)=O)C1(C)C,SIZDUQQDBXJXLQ-UHFFFAOYSA-N,-0.5752
"1,3-bis(acetyloxy)propan-2-yl acetate",,CC(=O)OCC(COC(C)=O)OC(C)=O,URAYPUMNDPQOKB-UHFFFAOYSA-N,-0.575436704
3-amino-4-methylbenzamide,,Cc1ccc(cc1N)C(N)=O,VYBKAZXQKUFAHG-UHFFFAOYSA-N,-0.57673192
"9-octadecenoic acid, 12-(sulfooxy)-, (z)-",,CCCCCCC(C\C=C/CCCCCCCC(O)=O)O[S](O)(=O)=O,CYKFQSXTIVGYDT-XFXZXTDPSA-N,-0.5781
"9-octadecenoic acid, 12-(sulfooxy)-",,CCCCCCC(CC=CCCCCCCCC(O)=O)O[S](O)(=O)=O,CYKFQSXTIVGYDT-UHFFFAOYSA-N,-0.5781
n-(aminocarbonyl)glycine,,NC(=O)NCC(O)=O,KZVRXPPUJQRGFN-UHFFFAOYSA-N,-0.5809
2-vinylpyridine,,C=Cc1ccccn1,KGIGUEBEKRSTEW-UHFFFAOYSA-N,-0.5824
"butanoic acid, 2,2,4-trichloro-",,OC(=O)C(Cl)(Cl)CCCl,UGTZSSVWKVRIAN-UHFFFAOYSA-N,-0.5831
2-[(2-hydroxyethyl)(phenyl)amino]ethan-1-ol,,OCCN(CCO)c1ccccc1,OJPDDQSCZGTACX-UHFFFAOYSA-N,-0.583380931
"l-serine, n-l-seryl-",,NC(CO)C(=O)NC(CO)C(O)=O,XZKQVQKUZMAADP-UHFFFAOYSA-N,-0.5847
Ibutilide,CAS122647-31-8,CCCCCCCN(CC)CCCC(C1=CC=C(C=C1)NS(=O)(=O)C)O,ALOBUEHUHMBRLE-UHFFFAOYSA-N,-0.58
octahydro-2H-1-benzopyran-2-one,,O=C1CCC2CCCCC2O1,MSFLYJIWLHSQLG-UHFFFAOYSA-N,-0.586560326
"disodium 5-acetamido-4-hydroxy-3-[(E)-2-phenyldiazen-1-yl]naphthalene-2,7-disulfonate",,[Na+].[Na+].CC(=O)Nc1cc(cc2C=C(\C(=N/Nc3ccccc3)C(=O)c12)[S]([O-])(=O)=O)[S]([O-])(=O)=O,YCUAAHNYYJTUJO-PJPLBZAPSA-L,-0.586608448
"(2R,3R,4R,5R)-hexane-1,2,3,4,5,6-hexol; (2S,3S,4S,5S,6R)-6-{[(2S,3S,4R,5S,6R)-2-carboxy-4,5,6-trihydroxyoxan-3-yl]oxy}-3,4,5-trihydroxyoxane-2-carboxylic acid; [(2S,3R,4R,5S,6S)-3-hydroxy-6-{[(2S,3R,4R,5S,6S)-3-hydroxy-6-{[(2S,3R,4R,5S,6S)-6-{[(2S,3R,4R,5S,6S)-3-hydroxy-6-{[(2S,3R,4R,5S,6R)-6-hydroxy-2-methyl-4,5-bis(sulfooxy)oxan-3-yl]oxy}-2-methyl-5-(sulfooxy)oxan-4-yl]oxy}-2-methyl-4,5-bis(sulfooxy)oxan-3-yl]oxy}-2-methyl-5-(sulfooxy)oxan-4-yl]oxy}-2-methyl-5-(sulfooxy)oxan-4-yl]oxidanesulfonic acid",,C[C@@H]1O[C@@H](O[C@@H]2[C@H](C)O[C@@H](O)[C@@H](O[S](O)(=O)=O)[C@@H]2O[S](O)(=O)=O)[C@@H](O[S](O)(=O)=O)[C@H](O[C@@H]3O[C@@H](C)[C@@H](O[C@@H]4O[C@@H](C)[C@@H](O)[C@@H](O[C@@H]5O[C@@H](C)[C@@H](O)[C@@H](O[S](O)(=O)=O)[C@@H]5O[S](O)(=O)=O)[C@@H]4O[S](O)(=O)=O)[C@@H](O[S](O)(=O)=O)[C@@H]3O[S](O)(=O)=O)[C@@H]1O.OC[C@@H](O)[C@@H](O)[C@H](O)[C@H](O)CO.O[C@@H]6O[C@@H]([C@@H](O[C@@H]7O[C@@H]([C@@H](O)[C@H](O)[C@@H]7O)C(O)=O)[C@H](O)[C@@H]6O)C(O)=O,DFKXEMWEDROUAD-VNAFSSMTSA-N,-0.589205864
"pyridine, 2,3,6-trimethyl-",,Cc1ccc(C)c(C)n1,UTBIMNXEDGNJFE-UHFFFAOYSA-N,-0.5893
ethyl 2-[[(~{E})-4-oxopent-2-en-2-yl]amino]acetate,,CCOC(=O)CNC(C)=CC(C)=O,GZHCYRZFDQBRLU-UHFFFAOYSA-N,-0.59
"2-(1,1-dioxothiazinan-2-yl)acetic acid",,O=C(O)CN1CCCCS1(=O)=O,HQKJYAGNQSMRJK-UHFFFAOYSA-N,-0.59
"copper(2+) ion tetrasodium 8-[(4-amino-6-chloro-1,3,5-triazin-2-yl)amino]-2-[(E)-2-(1-oxido-4,8-disulfonatonaphthalen-2-yl)diazen-1-yl]-3,6-disulfonatonaphthalen-1-olate",,[Na+].[Na+].[Na+].[Na+].[Cu++].Nc1nc(Cl)nc(Nc2cc(cc3cc(c(N=Nc4cc(c5cccc(c5c4[O-])[S]([O-])(=O)=O)[S]([O-])(=O)=O)c([O-])c23)[S]([O-])(=O)=O)[S]([O-])(=O)=O)n1,BQWFGICULAHUSM-UHFFFAOYSA-H,-0.590781442
"pentasodium 4-amino-6-[(E)-2-{5-[(4-amino-6-chloro-1,3,5-triazin-2-yl)amino]-2-sulfonatophenyl}diazen-1-yl]-3-[(E)-2-(2,5-disulfonatophenyl)diazen-1-yl]-5-hydroxynaphthalene-2,7-disulfonate",,[Na+].[Na+].[Na+].[Na+].[Na+].Nc1nc(Cl)nc(Nc2ccc(c(N\N=C/3C(=O)c4c(N)c(N=Nc5cc(ccc5[S]([O-])(=O)=O)[S]([O-])(=O)=O)c(cc4C=C3[S]([O-])(=O)=O)[S]([O-])(=O)=O)c2)[S]([O-])(=O)=O)n1,RAZBZSZIUMDHTB-WZTFRFCZSA-I,-0.590800584
"2-cyclopenta[c]pyran-4-carboxylic acid, 1-(á-d-g",,COC(=O)C1=CO[C@@H](O[C@@H]2O[C@H](CO)[C@@H](O)[C@H](O)[C@H]2O)[C@@H]3[C@@H](C)[C@@H](O)C[C@H]13,AMBQHHVBBHTQBF-UOUCRYGSSA-N,-0.5911
"d-alloisoleucine, n-acetyl-",,CC[C@H](C)[C@@H](NC(C)=O)C(O)=O,JDTWZSUNGHMMJM-CAHLUQPWSA-N,-0.5912
"2,3'-bipyridine",,c1ccc(nc1)c2cccnc2,VEKIYFGCEAJDDT-UHFFFAOYSA-N,-0.5916
"urea, n,n''-ethylidenebis-",,CC(NC(N)=O)NC(N)=O,MIWFLWHJKFXSDI-UHFFFAOYSA-N,-0.5916
"butanoic acid, 2-(formylamino)-",,CCC(NC=O)C(O)=O,QAISXTKWTBOYAA-UHFFFAOYSA-N,-0.5918
"2h-pyran, tetrahydro-2-methoxy-6-methyl-",,COC1CCCC(C)O1,FNEUIJOQHOUXIE-UHFFFAOYSA-N,-0.5921
tributylphosphine oxide,,CCCC[P](=O)(CCCC)CCCC,MNZAKDODWSQONA-UHFFFAOYSA-N,-0.5932
"1-phenylethan-1-aminium hydrate hydrogen [(2R,3S)-3-methyloxiran-2-yl]phosphonate",,O.CC([NH3+])c1ccccc1.C[C@@H]2O[C@@H]2[P](O)([O-])=O,XDXCFDPDYZSCAG-AFHMRPNKSA-N,-0.594139338
isovaleryl diethylamide,,CCN(CC)C(=O)CC(C)C,QZMQDHNCNUGQSO-UHFFFAOYSA-N,-0.5946
1-hexen-3-ol,,CCCC(O)C=C,BVOSSZSHBZQJOI-UHFFFAOYSA-N,-0.5993
3-bromocrotonic  acid (trans);  3-bromo-(e)-2-butenoic acid,,C\C(Br)=C\C(O)=O,JFQJADVATLPJRF-IHWYPQMZSA-N,-0.6
1-acetyl-5-fluorouracil,,CC(=O)N1C=C(F)C(=O)NC1=O,OVGDAVVFKDPXIC-UHFFFAOYSA-N,-0.6
3-acetyl-5-fluorouracil,,CC(=O)N1C(=O)NC=C(F)C1=O,JUZNVIUTDSYVKA-UHFFFAOYSA-N,-0.6
3-(2-oxopyridin-1-yl)propanoic acid,,O=C(O)CCN1C=CC=CC1=O,FGXRKDZZPDMPAQ-UHFFFAOYSA-N,-0.6
"1,3-Benzodioxole-5-carbohydrazide",,NNC(=O)C1=CC2=C(C=C1)OCO2,RAXBGBHBUFGWPG-UHFFFAOYSA-N,-0.6
1-Mentanol  ,,CC(C)C1(C)CCCC(O)C1,GXVKKGSUMOYXRP-UHFFFAOYSA-N,-0.6
"propanoic acid,2-[(meo-carbonyl)oxy]-, me ester",,COC(=O)OC(C)C(=O)OC,YYQQVTLVYLTGPR-UHFFFAOYSA-N,-0.6003
diethyl(prop-2-yn-1-yl)amine,,CCN(CC)CC#C,JZJXKEWVUBVOEH-UHFFFAOYSA-N,-0.602013123
pentan-1-ol,,CCCCCO,AMQJEAYHLZJPGS-UHFFFAOYSA-N,-0.602799636
"disodium 4-amino-3-[2-(4-{4-[2-(2,4-diaminophenyl)diazen-1-yl]benzenesulfonamido}phenyl)diazen-1-yl]-5-hydroxy-6-(2-phenyldiazen-1-yl)naphthalene-2,7-disulfonate",,[Na+].[Na+].Nc1ccc(N=Nc2ccc(cc2)[S](=O)(=O)Nc3ccc(cc3)N=Nc4c(N)c5c(O)c(N=Nc6ccccc6)c(cc5cc4[S]([O-])(=O)=O)[S]([O-])(=O)=O)c(N)c1,GLNHIAPTFHWQKY-UHFFFAOYSA-L,-0.602981194
2-[2-(2-ethoxyethoxy)ethoxy]ethyl methacrylate,,CCOCCOCCOCCOC(=O)C(C)=C,RBFPEAGEJJSYCX-UHFFFAOYSA-N,-0.603011426
3-chlorocrotonic acid,,C\C(Cl)=C/C(O)=O,XBOTUWGQYMHUFO-NSCUHMNNSA-N,-0.605
ethyl oxalate,,CCOC(=O)C(=O)OCC,WYACBZDAHNBPPB-UHFFFAOYSA-N,-0.6085
"guanidine, n-methyl-n,n'-dinitro-",,CN(C(/N)=N/[N+]([O-])=O)[N+]([O-])=O,SRKQWNFPTBNUKE-UHFFFAOYSA-N,-0.6104
"1,3-dioxolane-4,4-diacetic acid, 5-oxo-",,OC(=O)CC1(CC(O)=O)OCOC1=O,PXPMCAKTYKAROX-UHFFFAOYSA-N,-0.611
2-nitropropane,,CC(C)[N+]([O-])=O,FGLBSLMDCBOPQK-UHFFFAOYSA-N,-0.615
"disodium 2,2'-ethene-1,2-diylbis(5-aminobenzenesulfonate)",,[Na+].[Na+].Nc1ccc(\C=C\c2ccc(N)cc2[S]([O-])(=O)=O)c(c1)[S]([O-])(=O)=O,YAKFHPREDNNSFX-SEPHDYHBSA-L,-0.617390402
2-methylphenol,,Cc1ccccc1O,QWVGKYWNOKOFNN-UHFFFAOYSA-N,-0.619013017
Aminophenazone; Aminopyrine,PubChemCID6009,CC1=C(C(=O)N(N1C)C2=CC=CC=C2)N(C)C,RMMXTBMQSGEXHJ-UHFFFAOYSA-N,-0.62
2-(1-hydroxy-1-oxopropan-2-yl)disulfanylpropanoic acid,,CC(SSC(C)C(=O)O)C(=O)O,UTDRPUGFHHVEDG-UHFFFAOYSA-N,-0.62
Methyl N-(dichloroacetyl)threoninate,,COC(=O)C(NC(=O)C(Cl)Cl)C(C)O,VYWGNEZPNSBOSA-UHFFFAOYSA-N,-0.62
"4,4a,8,8a-tetrahydro-[1,3]dioxino[4,5-e][1,3]dioxin-8-ylmethanol",,OCC1OCOC2COCOC12,YSFJEZDRDFWOKZ-UHFFFAOYSA-N,-0.62
2-Nitropropane  ,,CCC(C)[N+](=O)[O-],SUGZATOHBPXTDV-UHFFFAOYSA-N,-0.62
N-isopropyl-2-methylacrylamide,,CC(C)NC(=O)C(C)=C,YQIGLEFUZMIVHU-UHFFFAOYSA-N,-0.620142884
Lisinopril,CAS83915-83-7,NCCCC[C@H](N[C@@H](CCc1ccccc1)C(=O)O)C(=O)N1CCC[C@H]1C(=O)O,RLAWWYSOJDYHDC-BZSNNMDCSA-N,-0.62
"2,3-dibromo-1-propanol",,OCC(Br)CBr,QWVCIORZLNBIIC-UHFFFAOYSA-N,-0.6222
"butanamide, n,n'-1,2-ethanediylbis-",,CCCC(=O)NCCNC(=O)CCC,AIWAFUBJIYAIGI-UHFFFAOYSA-N,-0.6222
3-aminophenol,,Nc1cccc(O)c1,CWLKGDAVCFYWJK-UHFFFAOYSA-N,-0.622962848
"hydrogen [4-[[4-(diethylamino)-o-tolyl][4-[ethyl(3-sulphonatobenzyl)amino]phenyl]methylene]cyclohexa-2,5-dien-1-ylidene](ethyl)(3-sulphonatobenzyl)ammonium, sodium salt",,[Na+].CCN(CC)c1ccc([C+](c2ccc(cc2)N(CC)Cc3cccc(c3)[S]([O-])(=O)=O)c4ccc(cc4)N(CC)Cc5cccc(c5)[S]([O-])(=O)=O)c(C)c1,IXNUVCLIRYUKFB-UHFFFAOYSA-M,-0.62297793
ammonium sodium 2-[4-[[1-[[(2-methoxy-5-methyl-4-sulphonatophenyl)amino]carbonyl]-2-oxopropyl]azo]phenyl]-6-methylbenzothiazole-7-sulphonate,,[NH4+].[Na+].COc1cc(c(C)cc1NC(=O)C(N=Nc2ccc(cc2)c3sc4c(ccc(C)c4[S]([O-])(=O)=O)n3)C(C)=O)[S]([O-])(=O)=O,BPSOMXDZJFRMBW-UHFFFAOYSA-M,-0.623062478
hexanedioic acid - piperazine (1:1),,OC(=O)CCCCC(O)=O.C1CNCCN1,BVEGEKOBSPXUJS-UHFFFAOYSA-N,-0.623286686
cyanthoate,,CCO[P](=O)(OCC)SCC(=O)NC(C)(C)C#N,TWDJIKFUVRYBJF-UHFFFAOYSA-N,-0.6237
"2-butanol, 3,3-dimethyl-, (.+-.)-",,CC(O)C(C)(C)C,DFOXKPDFWGNLJU-UHFFFAOYSA-N,-0.6238
triethyl citrate,,CCOC(=O)CC(O)(CC(=O)OCC)C(=O)OCC,DOOTYTYQINUNNV-UHFFFAOYSA-N,-0.6285
dichloromethane,,ClCCl,YMWUJEATGCHHMB-UHFFFAOYSA-N,-0.63
isopropyl formate,,CC(C)OC=O,RMOUBSOVHSONPZ-UHFFFAOYSA-N,-0.6301
"hexasodium 8-{[(2E)-6-chloro-4-[(4-{[(4Z)-6-chloro-4-({8-oxido-6-sulfo-3-sulfonato-7-[(E)-2-(2-sulfonatophenyl)diazen-1-yl]naphthalen-1-yl}imino)-4,5-dihydro-1,3,5-triazin-2-yl]amino}phenyl)amino]-1,2-dihydro-1,3,5-triazin-2-ylidene]amino}-3-sulfo-6-sulfonato-2-[(E)-2-(2-sulfonatophenyl)diazen-1-yl]naphthalen-1-olate",,[Na+].[Na+].[Na+].[Na+].[Na+].[Na+].[O-][S](=O)(=O)c1cc(Nc2nc(Cl)nc(Nc3ccc(Nc4nc(Cl)nc(Nc5cc(cc6C=C(/C(=N/Nc7ccccc7[S]([O-])(=O)=O)C(=O)c56)[S]([O-])(=O)=O)[S]([O-])(=O)=O)n4)cc3)n2)c8C(=O)C(=N/Nc9ccccc9[S]([O-])(=O)=O)\C(=Cc8c1)[S]([O-])(=O)=O,MPEFHPPVCSSFRQ-IGHLAAJMSA-H,-0.630380903
"sodium 7-amino-8-[(E)-2-{4-chloro-3-[(2,4-dimethylphenyl)sulfamoyl]phenyl}diazen-1-yl]-3-sulfonaphthalen-1-olate",,[Na+].Cc1ccc(N[S](=O)(=O)c2cc(NNC3=C4C(=O)C=C(C=C4C=CC3=N)[S]([O-])(=O)=O)ccc2Cl)c(C)c1,NFIWAOOZVZVNHC-UHFFFAOYSA-M,-0.630871318
"ethanesulfonic acid, 2-[(aminoiminomethyl)amino]",,NC(N)=NCC[S](O)(=O)=O,JKLRIMRKZBSSED-UHFFFAOYSA-N,-0.6321
"dl-valine, n-acetyl-",,CC(C)C(NC(C)=O)C(O)=O,IHYJTAOFMMMOPX-UHFFFAOYSA-N,-0.6325
iodine cyanide,,IC#N,WPBXOELOQKLBDF-UHFFFAOYSA-N,-0.6333