Name,ID,SMILES,inchi,LogS
dl-malic acid;  dl-2-hydroxybutanedioic acid;  hydroxysuccinic acid,,OC(CC(O)=O)C(O)=O,BJEPYKJPYRNKOW-UHFFFAOYSA-N,0.64
fructose,,O1CC(O)C(O)C(O)C1(O)CO,LKDRXBCSQODPBY-UHFFFAOYSA-N,0.64
Fructose,,OCC1OC(O)(CO)C(O)C1O,RFSUNEUAIZKAJO-UHFFFAOYSA-N,0.64
"piperazine, 2-methyl-",,CC1CNCCN1,JOMNTHCQHJPVAZ-UHFFFAOYSA-N,0.6378
Pyrithione sodium,,[Na+].[O-]N1C=CC=CC1=S,XNRNJIIJLOFJEK-UHFFFAOYSA-N,0.637012443
fructose,,OC[C@@H](O)[C@@H](O)[C@H](O)C(=O)CO,BJHIKXHVCXFQLS-UYFOZJQFSA-N,0.6353
methyl acetoacetate,,COC(=O)CC(C)=O,WRQNANDWMGAFTP-UHFFFAOYSA-N,0.6341
1-(2-aminoethyl)imidazolidin-2-one,,NCCN1CCNC1=O,PODSUMUEKRUDEI-UHFFFAOYSA-N,0.63354594
2-azacyclo-nonanone,,O=C1CCCCCCCN1,YDLSUFFXJYEVHW-UHFFFAOYSA-N,0.6329
iron(+2) cation sulfate,,[Fe++].[O-][S]([O-])(=O)=O,BAUYGSIQEAFULO-UHFFFAOYSA-L,0.631332711
"(2S,4S)-4-cyclohexylpyrrolidine-2-carboxylic acid hydrochloride",,Cl.OC(=O)[C@@H]1C[C@H](CN1)C2CCCCC2,BHGFUQJUTOVQOS-UXQCFNEQSA-N,0.631268384
"butanedioic acid, methyl-, (r)-",,C[C@H](CC(O)=O)C(O)=O,WXUAQHNMJWJLTG-GSVOUGTGSA-N,0.6311
"ethane-1,2-diylbis(oxyethane-2,1-diyl) diacetate",,CC(=O)OCCOCCOCCOC(C)=O,OVOUKWFJRHALDD-UHFFFAOYSA-N,0.630324108
potassium pentahydrogen diphosphate,,[K+].O[P](O)(O)=O,GNSKLFRGEWLPPA-UHFFFAOYSA-N,0.628656443
D-erythro-pentitol,,OCC(O)C(O)C(O)CO,HEBKCHPVOIAQTA-UHFFFAOYSA-N,0.625274489
dicrotophos,,CO[P](=O)(OC)OC(/C)=C/C(=O)N(C)C,VEENJGZXVHKXNB-VOTSOKGWSA-N,0.6249
sodium 4-methylbenzene-1-sulfonate,,[Na+].Cc1ccc(cc1)[S]([O-])(=O)=O,KVCGISUBCHHTDD-UHFFFAOYSA-M,0.624533151
proxyphylline,,CC(O)Cn1cnc2N(C)C(=O)N(C)C(=O)c12,KYHQZNGJUGFTGR-UHFFFAOYSA-N,0.623
2-amino-3-sulfanylpropanoic acid hydrochloride,,[Cl-].N[C@@H](CS)C(O)=O.[H+],IFQSXNOEEPCSLW-DKWTVANSSA-N,0.621927102
tetramethylazanium 2-carboxybenzoate,,C[N+](C)(C)C.OC(=O)c1ccccc1C([O-])=O,KQTFRASJMFIJPC-UHFFFAOYSA-M,0.621109935
1-Propanol,,CCCO,BDERNNFJNOPAEC-UHFFFAOYSA-N,0.62
1h-purine,,[nH]1cnc2ncncc12,KDCGOANMDULRCW-UHFFFAOYSA-N,0.6194
arsenic acid,,O[As](O)(O)=O,DJHGAFSJWGLOIV-UHFFFAOYSA-N,0.6187
"2,5-dihydrofuran-2,5-dione",,O=C1OC(=O)C=C1,FPYJFEHAWHCUMM-UHFFFAOYSA-N,0.618115807
2-oxopentanedioic acid,,OC(=O)CCC(=O)C(O)=O,KPGXRSRHYNQIFN-UHFFFAOYSA-N,0.614880073
4-(propan-2-yl)benzene-1-sulfonic acid,,CC(C)c1ccc(cc1)[S](O)(=O)=O,CVLHGLWXLDOELD-UHFFFAOYSA-N,0.612751114
"benzene-1,2-diol",,Oc1ccccc1O,YCIMNLLNPGFGHC-UHFFFAOYSA-N,0.612341891
1-{bis[3-(dimethylamino)propyl]amino}propan-2-ol,,CC(O)CN(CCCN(C)C)CCCN(C)C,NWDRKFORNVPWLY-UHFFFAOYSA-N,0.610105975
"2,4,5-trihydroxy-2-(hydroxymethyl)pentanoic acid",,O=C(O)C(O)(CO)CC(O)CO,SGOVJIDEXZEOTB-UHFFFAOYSA-N,0.61
sodium hydrogen (2S)-2-aminobutanedioate,,[Na+].N[C@@H](CC(O)=O)C([O-])=O,WTWSHHITWMVLBX-DKWTVANSSA-M,0.609927332
"1,3-benzenedicarboxylic acid, 4-sulfo-",,OC(=O)c1ccc(c(c1)C(O)=O)[S](O)(=O)=O,JSYUFUJLFRBMEN-UHFFFAOYSA-N,0.6087
oxydemeton methyl,,CC[S](=O)CCS[P](=O)(OC)OC,PMCVMORKVPSKHZ-UHFFFAOYSA-N,0.6086
sodium (2S)-5-oxopyrrolidine-2-carboxylate,,[Na+].[O-]C(=O)[C@@H]1CCC(=O)N1,CRPCXAMJWCDHFM-DFWYDOINSA-M,0.608204633
rhodium(3+) ion trinitrate,,[Rh+3].[O-][N+]([O-])=O.[O-][N+]([O-])=O.[O-][N+]([O-])=O,VXNYVYJABGOSBX-UHFFFAOYSA-N,0.607411262
sodium 4(or 5)-methyl-1H-benzotriazolide,,[Na+].Cc1cccc2n[n-]nc12,REERYFLJRPUSHT-UHFFFAOYSA-N,0.605167428
"1,2,3-trihydroxybenzene",,Oc1cccc(O)c1O,WQGWDDDVZFFDIG-UHFFFAOYSA-N,0.6043
"1,4-diazabicyclo(2,2,2)octane  (dabco)",,C1CN2CCN1CC2,IMNIMPAHZVJRPE-UHFFFAOYSA-N,0.6033
"2-hydroxy-N,N,N-trimethylethanaminium hydroxide",,[OH-].C[N+](C)(C)CCO,KIZQNNOULOCVDM-UHFFFAOYSA-M,0.603205321
iron(3+) ion trichloride,,[Cl-].[Cl-].[Cl-].[Fe+3],RBTARNINKXHZNM-UHFFFAOYSA-K,0.602851797
2-hydroxyacetic acid,,OCC(O)=O,AEMRFAOFKBGASW-UHFFFAOYSA-N,0.596016326
"N,N-diethylethanaminium bromide",,[Br-].CC[NH+](CC)CC,NRTLTGGGUQIRRT-UHFFFAOYSA-N,0.595197285
(5-amino-3-hydroxy-5-oxopentylidene)-dimethylazanium chloride,,[Cl-].C[N+](C)=CCC(O)CC(N)=O,LTELZMDSXFWIGP-UHFFFAOYSA-N,0.593129503
zinc(2+) ion diphosphate,,[Zn++].[O-][P]([O-])([O-])=O.[O-][P]([O-])([O-])=O,MFXMOUUKFMDYLM-UHFFFAOYSA-H,0.592898155
Diphenhydramine,CAS58-73-1,CN(C)CCOC(c1ccccc1)c1ccccc1,ZZVUWRFHKOJYTH-UHFFFAOYSA-N,0.59
pentylmalonic acid,,CCCCCC(C(O)=O)C(O)=O,LAWHHRXCBUNWFI-UHFFFAOYSA-N,0.5921
2-methylpropanoic anhydride,,CC(C)C(=O)OC(=O)C(C)C,LSACYLWPPQLVSM-UHFFFAOYSA-N,0.591790232
(4-fluorophenyl)(piperidin-4-yl)methanone hydrochloride,,[H+].[Cl-].Fc1ccc(cc1)C(=O)C2CCNCC2,GPKDBZQZPNOBGM-UHFFFAOYSA-N,0.589019569
"benzoic acid, sodium salt",,[Na+].[O-]C(=O)c1ccccc1,WXMKPNITSTVMEF-UHFFFAOYSA-M,0.5864
4-pyrimidone,,O=C1NC=NC=C1,DNCYBUMDUBHIJZ-UHFFFAOYSA-N,0.586
4(3h)-pyrimidone,,O=C1CC=NC=N1,TZYQTWHRLVDYPL-UHFFFAOYSA-N,0.586
6-aminohexanoic acid,,NCCCCCC(O)=O,SLXKOJJOQWFEFD-UHFFFAOYSA-N,0.5854
a-glucose-1-phosphate,,OCC1OC(O[P](O)(O)=O)C(O)C(O)C1O,HXXFSFRBOHSIMQ-UHFFFAOYSA-N,0.5848
disodium disilicate,,[Na+].[Na+].[O-][Si](=O)O[Si]([O-])=O,OQEVSCYDUYRAAM-UHFFFAOYSA-N,0.584676017
tetraethylazanium benzoate,,CC[N+](CC)(CC)CC.[O-]C(=O)c1ccccc1,CIFIGXMZHITUAZ-UHFFFAOYSA-M,0.583312842
manganese(2+) ion dichloride,,O.O.O.O.[Cl-].[Cl-].[Mn++],CNFDGXZLMLFIJV-UHFFFAOYSA-L,0.582641307
disodium carbonate,,[Na+].[Na+].[O-]C([O-])=O,CDBYLPFSWZWCQE-UHFFFAOYSA-L,0.581124668
"(5R)-5-[(1S)-1,2-dihydroxyethyl]-4-ethoxy-3-hydroxy-5H-furan-2-one",,CCOC1=C(O)C(=O)O[C@@H]1[C@@H](O)CO,ZGSCRDSBTNQPMS-UJURSFKZSA-N,0.580970652
propanal,,CCC=O,NBBJYMSMWIIQGU-UHFFFAOYSA-N,0.58
"3-(2-chloroethyl)-2-methyl-4H,6H,7H,8H,9H-pyrido[1,2-a]pyrimidin-4-one hydrochloride",,Cl.CC1=C(CCCl)C(=O)N2CCCCC2=N1,OPYLAGAQMHMBNY-UHFFFAOYSA-N,0.57976692
xylose,,OC1COC(O)C(O)C1O,SRBFZHDQGSBBOR-UHFFFAOYSA-N,0.577880851
sodium bis(2-methylpropyl) sulfanidyl(sulfanylidene)phosphonite,,[Na+].CC(C)CO[P]([S-])(=S)OCC(C)C,FOYPFIDVYRCZKA-UHFFFAOYSA-M,0.57785683
dimethoxymethylvinylsilane,,CO[Si](C)(OC)C=C,ZLNAFSPCNATQPQ-UHFFFAOYSA-N,0.577623585
methyl L-serinate hydrochloride,,[H+].[Cl-].COC(=O)C(N)CO,NDBQJIBNNUJNHA-UHFFFAOYSA-N,0.577420768
formamide oxime,,ON=C,SQDFHQJTAWCFIB-UHFFFAOYSA-N,0.5768
"N-butyl-2,2,6,6-tetramethylpiperidin-4-amine",,CCCCNC1CC(C)(C)NC(C)(C)C1,FDAKZQLBIFPGSV-UHFFFAOYSA-N,0.57461503
Metoprolol,CAS37350-58-6,COCCc1ccc(OCC(O)CNC(C)C)cc1,IUBSYMUCCVWXPE-UHFFFAOYSA-N,0.57
"(2R,3R)-2,3-dihydroxybutanedioic acid",,OC(C(O)C(O)=O)C(O)=O,FEWJPZIEWOKRBE-UHFFFAOYSA-N,0.571847844
"3,5-dimethyl-1,2-dioxolane-3,5-diol",,CC1(O)CC(C)(O)OO1,ODQWDBNAMVRLSR-UHFFFAOYSA-N,0.571440842
diammonium [(sulfonoperoxoato sulfato)oxy]sulfonoperoxoate,,[NH4+].[NH4+].[O-][S](=O)(=O)OO[S]([O-])(=O)=O,ROOXNKNUYICQNP-UHFFFAOYSA-N,0.571095673
ethambutol; emb,,CCC(CO)NCCNC(CC)CO,AEUTYOVWOVBAKS-UHFFFAOYSA-N,0.57
prop-2-enal,,C=CC=O,HGINCPLSRVDWNT-UHFFFAOYSA-N,0.569379255
"4-hydroxy-2,2,6,6-tetramethylpiperidinoxyl",,CC1(C)CC(O)CC(C)(C)N1[O],UZFMOKQJFYMBGY-UHFFFAOYSA-N,0.562703544
tetrahydrofuran,,O(CCC1)C1,WYURNTSHIVDZCO-UHFFFAOYSA-N,0.56
sodium 2-hydroxyethanesulfonate,,[Na+].OCC[S]([O-])(=O)=O,LADXKQRVAFSPTR-UHFFFAOYSA-M,0.556942214
p-toluenesulfonic acid,,Cc1ccc(cc1)[S](O)(=O)=O,JOXIMZWYDAKGHI-UHFFFAOYSA-N,0.5564
msma,,[Na+].C[As](O)([O-])=O,JITOKQVGRJSHHA-UHFFFAOYSA-M,0.554
sodium 2-hydroxy-3-(prop-2-en-1-yloxy)propane-1-sulfonate,,[Na+].OC(COCC=C)C[S]([O-])(=O)=O,CJGJYOBXQLCLRG-UHFFFAOYSA-M,0.55383995
cyclopentanone,,O=C1CCCC1,BGTOWKSIORTVQH-UHFFFAOYSA-N,0.553677557
bis(hydroxyazanium) sulfate,,[NH3+]O.[NH3+]O.[O-][S]([O-])(=O)=O,VGYYSIDKAKXZEE-UHFFFAOYSA-L,0.553426318
trimethyl phosphate,,CO[P](=O)(OC)OC,WVLBCYQITXONBZ-UHFFFAOYSA-N,0.5526
"2-amino-2-(hydroxymethyl)propane-1,3-diol hydrochloride",,[H+].[Cl-].NC(CO)(CO)CO,QKNYBSVHEMOAJP-UHFFFAOYSA-N,0.551414915
dalapon,,CC(Cl)(Cl)C(O)=O,NDUPDOJHUQKPAG-UHFFFAOYSA-N,0.5455
yttrium trinitrate,,[Y+3].[O-][N+]([O-])=O.[O-][N+]([O-])=O.[O-][N+]([O-])=O,BXJPTTGFESFXJU-UHFFFAOYSA-N,0.545324138
sodium (ethoxymethanethioyl)sulfanide,,[Na+].CCOC([S-])=S,RZFBEFUNINJXRQ-UHFFFAOYSA-M,0.544338165
octamethylpyrophosphoramide,,CN(C)[P](=O)(O[P](=O)(N(C)C)N(C)C)N(C)C,SZKKRCSOSQAJDE-UHFFFAOYSA-N,0.5433
vamidothion,,CNC(=O)CCSCCS[P](=O)(OC)OC,CUJJSLYROAWARJ-UHFFFAOYSA-N,0.5416
tetraamminepalladium(2+) diacetate,,N.N.N.N.[Pd++].CC([O-])=O.CC([O-])=O,WSHXNSFLJBJEGA-UHFFFAOYSA-L,0.541425963
"ethanesulfonamide, n-(ethylsulfonyl)-",,CC[S](=O)(=O)N[S](=O)(=O)CC,IPVBROHEYXPTBX-UHFFFAOYSA-N,0.5413
iron(3+) chloride sulfate,,[Cl].[Fe].[O-][S]([O-])(=O)=O,NGYBMUURDZXEEA-UHFFFAOYSA-L,0.540234161
"1,6-naphthalenedisulfonic acid",,O[S](=O)(=O)c1ccc2c(cccc2[S](O)(=O)=O)c1,HEWDOWUUTBCVJP-UHFFFAOYSA-N,0.5402
acephate;  orthene,,CO[P](=O)(NC(C)=O)SC,YASYVMFAVPKPKE-UHFFFAOYSA-N,0.54
vamidothion,,CNC(=O)C(C)SCCS[P](=O)(OC)OC,LESVOLZBIFDZGS-UHFFFAOYSA-N,0.54
(2S)-2-amino-5-carbamimidamidopentanoic acid hydrochloride,,[Cl-].N[C@@H](CCCN=C(N)N)C(O)=O.[H+],KWTQSFXGGICVPE-WCCKRBBISA-N,0.539730472
3-ethylpyridine,,CCc1cccnc1,MFEIKQPHQINPRI-UHFFFAOYSA-N,0.538
phosphoric acid; urea,,NC(N)=O.O[P](O)(O)=O,DZHMRSPXDUUJER-UHFFFAOYSA-N,0.537602002
tetraethyl pyrophosphate,,CCO[P](=O)(OCC)O[P](=O)(OCC)OCC,IDCBOTIENDVCBQ-UHFFFAOYSA-N,0.5373
"methanetrisulfonic acid, chloro-",,O[S](=O)(=O)C(Cl)([S](O)(=O)=O)[S](O)(=O)=O,AASRJJKRVOUFBO-UHFFFAOYSA-N,0.5366
entprol,,CC(O)CN(CCN(CC(C)O)CC(C)O)CC(C)O,NSOXQYCFHDMMGV-UHFFFAOYSA-N,0.534
(2-aminoethyl)({2-[(2-aminoethyl)amino]ethyl})amine; tris(2-aminoethyl)amine,,NCCNCCNCCN.NCCN(CCN)CCN,KOJAIESBSPUXIB-UHFFFAOYSA-N,0.533909766
n-methyl-n-nitrosoethamine,,CCN(C)N=O,RTDCJKARQCRONF-UHFFFAOYSA-N,0.5321
"2,4,6,8,10-pentamethyl-1,3,5,7,9,2,4,6,8,10-pentaoxapentasilecane",,C[Si]1O[Si](C)O[Si](C)O[Si](C)O[Si](C)O1,PUNGSQUVTIDKNU-UHFFFAOYSA-N,0.52929557
n-methyl glycine,,CNCC(O)=O,FSYKKLYZXJSNPZ-UHFFFAOYSA-N,0.5273
"1,3-thiazol-5-ylmethanol",,OCc1scnc1,WKBQQWDVVHGWDB-UHFFFAOYSA-N,0.525735536
"phosphonic acid, (1-hydroxyethylidene)bis-",,CC(O)([P](O)(O)=O)[P](O)(O)=O,DBVJJBKOTRCVKF-UHFFFAOYSA-N,0.5249
"serine, o-ethyl-",,CCOC[C@H](N)C(O)=O,AFGCRUGTZPDWSF-BYPYZUCNSA-N,0.524
phosphamidon,,CCN(CC)C(=O)/C(Cl)=C(/C)O[P](=O)(OC)OC,RGCLLPNLLBQHPF-CMDGGOBGSA-N,0.5233
phosphamidon,,CCN(CC)C(=O)\C(Cl)=C(/C)O[P](=O)(OC)OC,RGCLLPNLLBQHPF-HJWRWDBZSA-N,0.5233
Dimecron,,CCN(CC)C(=O)C(=CCOP(=O)(OC)OC)Cl,RWXKUYSKUSXRGL-UHFFFAOYSA-N,0.523
"2,2-difluoroethanamine",,NCC(F)F,OVRWUZYZECPJOB-UHFFFAOYSA-N,0.522530377
"butanedioic acid, mercapto-",,OC(=O)CC(S)C(O)=O,NJRXVEJTAYWCQJ-UHFFFAOYSA-N,0.522
"d-gluconic acid, .delta.-lactone",,OCC1OC(=O)C(O)C(O)C1O,PHOQVHQSTUBQQK-UHFFFAOYSA-N,0.5201
2-butanone,,O=C(CC)C,ZWEHNKRNPOVVGH-UHFFFAOYSA-N,0.52
sodium 2-methylprop-2-ene-1-sulfonate,,[Na+].CC(=C)C[S]([O-])(=O)=O,SZHIIIPPJJXYRY-UHFFFAOYSA-M,0.519421508
sodium 1-benzylpyridin-1-ium-3-carboxylate chloride,,[Na+].[Cl-].[O-]C(=O)c1ccc[n+](Cc2ccccc2)c1,ONCDUCAWXQKSDE-UHFFFAOYSA-M,0.519220267
trichloroacetic acid,,OC(=O)C(Cl)(Cl)Cl,YNJBWRMUSHSURL-UHFFFAOYSA-N,0.519
"2,2-bis(hydroxymethyl)butanoic acid",,CCC(CO)(CO)C(O)=O,JVYDLYGCSIHCMR-UHFFFAOYSA-N,0.516803854
2-methyl-1H-imidazole,,Cc1[nH]ccn1,LXBGSDVWAMZHDD-UHFFFAOYSA-N,0.512136366
"propanedioic acid, oxo-, diethyl ester",,CCOC(=O)C(=O)C(=O)OCC,DBKKFIIYQGGHJO-UHFFFAOYSA-N,0.5117
"phosphoric acid, ethyl dimethyl ester",,CCO[P](=O)(OC)OC,JQVXMIPNQMYRPE-UHFFFAOYSA-N,0.5112
"sodium (2R)-2-[(1S)-1,2-dihydroxyethyl]-4-hydroxy-5-oxo-2,5-dihydrofuran-3-olate",,[Na+].OC[C@H](O)C1OC(=O)[C-](O)C1=O,IFVCRSPJFHGFCG-HXPAKLQESA-N,0.511043092
2-amino-3-hydroxypropanehydrazide hydrochloride,,[H+].[Cl-].NNC(=O)C(N)CO,JNWGUZKRVDKZBI-UHFFFAOYSA-N,0.510462812
"1,3-phenylenediamine;  1,3-diaminobenzene",,NC1=CC(=CC=C1)N,WZCQRUWWHSTZEM-UHFFFAOYSA-N,0.51
"1,2-benzenedicarboxamide, n,n,n',n'-tetramethyl-",,CN(C)C(=O)c1ccccc1C(=O)N(C)C,ZUMRZCLVLLRVIF-UHFFFAOYSA-N,0.5083
(methoxymethyl)(triphenyl)phosphonium chloride,,[Cl-].COC[P+](c1ccccc1)(c2ccccc2)c3ccccc3,SJFNDMHZXCUXSA-UHFFFAOYSA-M,0.506344271
dimethoxymethane,,COCOC,NKDDWNXOKDWJAK-UHFFFAOYSA-N,0.506
"2,4,6-tris[(dimethylamino)methyl]phenol",,CN(C)Cc1cc(CN(C)C)c(O)c(CN(C)C)c1,AHDSRXYHVZECER-UHFFFAOYSA-N,0.505516371
formetanate hydrochloride,,[H+].[Cl-].CNC(=O)Oc1cccc(c1)N=CN(C)C,MYPKGPZHHQEODQ-UHFFFAOYSA-N,0.5037
"butanediamide, n,n,n',n'-tetramethyl-",,CN(C)C(=O)CCC(=O)N(C)C,RCWUFNWXCIKHPC-UHFFFAOYSA-N,0.5035
Amitriptyline Hydrochloride,CAS549-18-8,CN(C)CCC=C1c2ccccc2CCc2ccccc21.Cl,KFYRPLNVJVHZGT-UHFFFAOYSA-N,0.5
2-(dimethylamino)ethyl 2-methylprop-2-enoate,,CN(C)CCOC(=O)C(C)=C,JKNCOURZONDCGV-UHFFFAOYSA-N,0.502481549
bethanechol chloride,,[Cl-].CC(C[N+](C)(C)C)OC(N)=O,XXRMYXBSBOVVBH-UHFFFAOYSA-N,0.5021
disodium dioxomolybdenumbis(olate),,[Na+].[Na+].[O-][Mo]([O-])(=O)=O,TVXXNOYZHKPKGW-UHFFFAOYSA-N,0.502020447
zinc(2+) ion dichloride,,[Cl-].[Cl-].[Zn++],JIAARYAFYJHUJI-UHFFFAOYSA-L,0.501000636
2-ethylpyridine,,CCc1ccccn1,NRGGMCIBEHEAIL-UHFFFAOYSA-N,0.501
"propanoic acid, 3-phosphono-",,OC(=O)CC[P](O)(O)=O,NLBSQHGCGGFVJW-UHFFFAOYSA-N,0.5007
potassium dibenzyl phosphate,,[K+].[O-][P](=O)(OCc1ccccc1)OCc2ccccc2,MTTPUPNRZRSDDM-UHFFFAOYSA-M,0.499854127
acetaldehyde oxime,,C/C=N/O,FZENGILVLUJGJX-NSCUHMNNSA-N,0.495819462
"acetic acid, 2,2'-oxybis-",,OC(=O)COCC(O)=O,QEVGZEDELICMKH-UHFFFAOYSA-N,0.4927
2-methyl-5-nitrobenzene-1-sulfonic acid,,Cc1ccc(cc1[S](O)(=O)=O)[N+]([O-])=O,ZDTXQHVBLWYPHS-UHFFFAOYSA-N,0.492439953
nitenpyram,,CCN(Cc1ccc(Cl)nc1)\C(NC)=C\[N+]([O-])=O,CFRPSFYHXJZSBI-DHZHZOJOSA-N,0.4918
bilanafos,,C[C@H](NC(=O)[C@H](C)NC(=O)[C@@H](N)CC[P](C)(O)=O)C(O)=O,GINJFDRNADDBIN-FXQIFTODSA-N,0.4904
5-(aminomethyl)-2-methylpyrimidin-4-amine,,Cc1ncc(CN)c(N)n1,OZOHTVFCSKFMLL-UHFFFAOYSA-N,0.490306563
"2,5-dimethylpiperazine (trans)",,CC1CNC(C)CN1,NSMWYRLQHIXVAP-UHFFFAOYSA-N,0.49
"3-(aminomethyl)-3,5,5-trimethylcyclohexan-1-ol",,CC1(C)CC(O)CC(C)(CN)C1,YFEAYNIMJBHJCM-UHFFFAOYSA-N,0.488999371
hydrogen tetrachlorogolduide,,[NH4+].[Cl-].[Cl-].[Cl-].[Cl-].[Au+3],WPEJSSRSFRWYJB-UHFFFAOYSA-K,0.48894593
potassium benzoate,,[K+].[O-]C(=O)c1ccccc1,XAEFZNCEHLXOMS-UHFFFAOYSA-M,0.48726735
"1,3-benzenedicarboxamide, n,n,n',n'-tetramethyl-",,CN(C)C(=O)c1cccc(c1)C(=O)N(C)C,SVWDHNLFFDIWHM-UHFFFAOYSA-N,0.487
disodium [(sulfonoperoxoato sulfato)oxy]sulfonoperoxoate,,[Na+].[Na+].[O-][S](=O)(=O)OO[S]([O-])(=O)=O,CHQMHPLRPQMAMX-UHFFFAOYSA-L,0.486552521
"trans-2,5-dimethylpiperazine",,C[C@H]1C[NH2+][C@H](C)C[NH2+]1,NSMWYRLQHIXVAP-OLQVQODUSA-P,0.4864
samarium(3+) ion trinitrate,,[Sm+3].[O-][N+]([O-])=O.[O-][N+]([O-])=O.[O-][N+]([O-])=O,YZDZYSPAJSPJQJ-UHFFFAOYSA-N,0.486017387
Chromic phosphate,,[Cr+3].[O-][P]([O-])([O-])=O,IKZBVTPSNGOVRJ-UHFFFAOYSA-K,0.48599564
"dl-allothreonine, o-methyl-",,COC(C)C(N)C(O)=O,FYCWLJLGIAUCCL-UHFFFAOYSA-N,0.4853
"potassium 3,5,5-trimethylhexanoate",,[K+].CC(CC([O-])=O)CC(C)(C)C,PMTWGKHDSHSGIL-UHFFFAOYSA-M,0.485162372
tributyl(methyl)azanium chloride,,[I-].CCCC[N+](C)(CCCC)CCCC,DXJLCRNXYNRGRA-UHFFFAOYSA-M,0.485061956
"1,3-propanediol, 2-(2-propenyloxy)-",,OCC(CO)OCC=C,IGDCJKDZZUALAO-UHFFFAOYSA-N,0.481
"dl-methylsuccinic  acid;  dl-2-methyl-1,4-butanedioic acid",,CC(CC(O)=O)C(O)=O,WXUAQHNMJWJLTG-UHFFFAOYSA-N,0.48
l-dopa methyl ester,,COC(=O)C(N)CC1=CC(=C(O)C=C1)O,XBBDACCLCFWBSI-UHFFFAOYSA-N,0.48
"2,2,4-trimethylhexane-1,6-diamine",,CC(CCN)CC(C)(C)CN,JCUZDQXWVYNXHD-UHFFFAOYSA-N,0.478156217
"2-hydroxypropane-1,2,3-tricarboxylic acid",,OC(=O)CC(O)(CC(O)=O)C(O)=O,KRKNYBCHXYNGOX-UHFFFAOYSA-N,0.476843124
2-({2-[2-(dimethylamino)ethoxy]ethyl}(methyl)amino)ethan-1-ol,,CN(C)CCOCCN(C)CCO,NCUPDIHWMQEDPR-UHFFFAOYSA-N,0.476465736
pyridoxal,,Cc1ncc(CO)c(C=O)c1O,RADKZDMFGJYCBB-UHFFFAOYSA-N,0.4758
potassium hydrogen tartarate,,[K+].O[C@H]([C@@H](O)C([O-])=O)C(O)=O,KYKNRZGSIGMXFH-ZVGUSBNCSA-M,0.473623794
"phosphoric acid, dimethyl propyl ester",,CCCO[P](=O)(OC)OC,GMSOIBLTSDGVEX-UHFFFAOYSA-N,0.4733
chromium(3+) ion acetate dihydroxide,,[Cr+3].CC([O-])=O.CC([O-])=O.CC([O-])=O,WYYQVWLEPYFFLP-UHFFFAOYSA-K,0.469225609
sodium [(2-methylpropoxy)methanethioyl]sulfanide,,[Na+].CCC(C)OC(S)=S,LRHOHFCSKBRDFH-UHFFFAOYSA-N,0.468876879
peroxol,,OO,MHAJPDPJQMAIIY-UHFFFAOYSA-N,0.468342293
melibiose,,OCC1OC(OCC2OC(O)C(O)C(O)C2O)C(O)C(O)C1O,DLRVVLDZNNYCBX-UHFFFAOYSA-N,0.4656
lithium(1+) ion perchlorate,,[Li+].O.O.O.[O-][Cl](=O)(=O)=O,JAWYRNYHJJDXHX-UHFFFAOYSA-M,0.461218862
Methyl acetate,,COC(=O)C,KXKVLQRXCPHEJC-UHFFFAOYSA-N,0.46
diammonium 2-[(carboxylatomethyl)disulfanyl]acetate,,[NH4+].[NH4+].[O-]C(=O)CSSCC([O-])=O,RZOXALOSBVDYRY-UHFFFAOYSA-N,0.459603052
"l-valine, n-glycyl-",,CC(C)C(NC(=O)CN)C(O)=O,STKYPAFSDFAEPH-UHFFFAOYSA-N,0.4579
Valylglycine,,CC(C)C(N)C(=O)NCC(O)=O,IOUPEELXVYPCPG-UHFFFAOYSA-N,0.4579
"glycine, n,n-bis(2-cyanoethyl)-",,OC(=O)CN(CCC#N)CCC#N,KIGQVWWOESIMBG-UHFFFAOYSA-N,0.4578
"pentanal, 5-methoxy-",,COCCCCC=O,KCCMPTAMMUQNSK-UHFFFAOYSA-N,0.4574
vanadium oxide sulphate,,[O-][S]([O-])(=O)=O.O=[V++],UUUGYDOQQLOJQA-UHFFFAOYSA-L,0.457118619
Methyl morpholine oxide,,C[N+]1([O-])CCOCC1,LFTLOKWAGJYHHR-UHFFFAOYSA-N,0.456309929
3-(morpholin-4-yl)propane-1-sulfonic acid,,[O-][S](=O)(=O)CCC[NH+]1CCOCC1,DVLFYONBTKHTER-UHFFFAOYSA-N,0.455782507
zinc(2+) ion bis(2-ethylhexanoate),,[Zn++].CCCCC(CC)C([O-])=O.CCCCC(CC)C([O-])=O,IFNXAMCERSVZCV-UHFFFAOYSA-L,0.455435409
"1,1,1-trifluoro-N-(trifluoromethylsulfonyl)methanesulfonamide",,FC(F)(F)[S](=O)(=O)N[S](=O)(=O)C(F)(F)F,ZXMGHDIOOHOAAE-UHFFFAOYSA-N,0.454144176
disodium disulphite,,[Na+].[Na+].[O-][S](=O)O[S]([O-])=O,LDTLADDKFLAYJA-UHFFFAOYSA-L,0.453391082
"N-methylmethanaminium (2,4-dichlorophenoxy)acetate",,CNC.OC(=O)COc1ccc(Cl)cc1Cl,IUQJDHJVPLLKFL-UHFFFAOYSA-N,0.449977221
"2,4-dimethylpyridine",,Cc1ccnc(C)c1,JYYNAJVZFGKDEQ-UHFFFAOYSA-N,0.4471
"2,6-lutidine",,Cc1cccc(C)n1,OISVCGZHLKNMSJ-UHFFFAOYSA-N,0.447
2-ethyl-3-methylpyrazine,,CCc1nccnc1C,LNIMMWYNSBZESE-UHFFFAOYSA-N,0.444510788
"2-(4,5-diamino-1H-pyrazol-1-yl)ethan-1-ol; sulfuric acid",,Nc1cnn(CCO)c1N.O[S](O)(=O)=O,IBCDZZHMNXXYAP-UHFFFAOYSA-N,0.444259344
alpha-d-glucose,,OC[C@H]1O[C@H](O)[C@H](O)[C@@H](O)[C@@H]1O,WQZGKKKJIJFFOK-DVKNGEFBSA-N,0.4433
"N-(2,6-dimethylphenyl)-2-piperazine-1,4-diium-1-ylacetamide",,Cc1cccc(C)c1NC(=O)C[NH+]2CC[NH2+]CC2,NJKRFQIWDJSYOK-UHFFFAOYSA-P,0.443282789
dicaesium(1+) ion sulfate,,[Cs+].[Cs+].[O-][S]([O-])(=O)=O,FLJPGEWQYJVDPF-UHFFFAOYSA-L,0.441443819
(2S)-4-hydroxypyrrolidine-2-carboxylic acid,,OC1CNC(C1)C(O)=O,PMMYEEVYMWASQN-UHFFFAOYSA-N,0.439922115
calcium disulfamate,,[Ca++].N[S]([O-])(=O)=O.N[S]([O-])(=O)=O,RSIPQRDGPVEGLE-UHFFFAOYSA-L,0.438861216
triethyl phosphate,,CCO[P](=O)(OCC)OCC,DQWPFSLDHJDLRL-UHFFFAOYSA-N,0.438526523
"2,4-dihydroxy-N-(3-hydroxypropyl)-3,3-dimethylbutanamide",,CC(C)(CO)C(O)C(=O)NCCCO,SNPLKNRPJHDVJA-UHFFFAOYSA-N,0.437676454
"2,6-diaminohexanoic acid hydrochloride",,[Cl-].NCCCC[C@H](N)C(O)=O.[H+],BVHLGVCQOALMSV-JEDNCBNOSA-N,0.43734795
butyl malonic acid,,CCCCC(C(O)=O)C(O)=O,MCRZWYDXIGCFKO-UHFFFAOYSA-N,0.4369
paraquat dichloride,,[Cl-].[Cl-].C[n+]1ccc(cc1)c2cc[n+](C)cc2,FIKAKWIAUPDISJ-UHFFFAOYSA-L,0.4349
Hexobarbital,CAS56-29-1,CN1C(=O)NC(=O)C(C)(C2=CCCCC2)C1=O,UYXAWHWODHRRMR-UHFFFAOYSA-N,0.43
sodium gluconate,,[Na+].OCC(O)C(O)C(O)C(O)C([O-])=O,UPMFZISCCZSDND-UHFFFAOYSA-M,0.4321
2-[4-(2-hydroxyethyl)piperazin-1-yl]ethanesulfonic acid,,[Na+].OCCN1CCN(CC1)CC[S]([O-])(=O)=O,RDZTWEVXRGYCFV-UHFFFAOYSA-M,0.431866679
"2-benzoyloxy-n,n-di(2-hydroxyethyl)acetamide;  n,n-di(2-hydroxyethyl)-2-(benzoyloxy)acetamide",,OCCN(CCO)C(=O)COC(=O)C1=CC=CC=C1,UCIUVGVKELKZSD-UHFFFAOYSA-N,0.43
2-Propanol,,CC(C)O,KFZMGEQAYNKOFK-UHFFFAOYSA-N,0.43
methallyl alcohol,,CC(=C)CO,BYDRTKVGBRTTIT-UHFFFAOYSA-N,0.4298
disodium 2-oxopentanedioate,,[Na+].[Na+].[O-]C(=O)CCC(=O)C([O-])=O,YBGBJYVHJTVUSL-UHFFFAOYSA-L,0.429525605
mevinphos,,COC(=O)\C=C(/C)O[P](=O)(OC)OC,GEPDYQSQVLXLEU-AATRIKPKSA-N,0.4276
"acetic acid, 2,2'-thiobis-",,OC(=O)CSCC(O)=O,UVZICZIVKIMRNE-UHFFFAOYSA-N,0.4255
"sodium dihydrogen 2-hydroxypropane-1,2,3-tricarboxylate",,[Na+].OC(=O)CC(O)(CC(O)=O)C([O-])=O,HWPKGOGLCKPRLZ-UHFFFAOYSA-M,0.425248046
tetrakis(hydroxymethyl)phosphanium; urea; chloride,,[Cl-].NC(N)=O.OC[P+](CO)(CO)CO,SNIVVKDUMQYBAV-UHFFFAOYSA-M,0.425111841
3-chloro-1-propanol,,OCCCCl,LAMUXTNQCICZQX-UHFFFAOYSA-N,0.4223
(2-aminoethyl)[2-({2-[(2-aminoethyl)amino]ethyl}amino)ethyl]amine; bis(2-aminoethyl)({2-[(2-aminoethyl)amino]ethyl})amine,,NCCNCCNCCNCCN.NCCNCCN(CCN)CCN,FQBUBHQWFYTJPE-UHFFFAOYSA-N,0.421803331