Name,ID,SMILES,inchi,LogS
mepanipyrim;  2-anilino-4-methyl-6-(1-propynyl)pyrimidine,,CC#CC1=NC(=NC(=C1)C)NC2=CC=CC=C2,CIFWZNRJIBNXRE-UHFFFAOYSA-N,-4.6
"7-chloro-3'-ethoxy-4,6-dimethoxy-5'-methylspiro[1-benzofuran-2,6'-cyclohex-2-ene]-1',3-dione",,CCOC1=CC(=O)C2(OC3=C(C2=O)C(OC)=CC(OC)=C3Cl)C(C)C1,NIPIUEYPZWURFS-UHFFFAOYSA-N,-4.6
"1,3,5-Trichlorobenzene  ",,ClC1=CC(Cl)=CC(Cl)=C1,XKEFYDZQGKAQCN-UHFFFAOYSA-N,-4.6
lindane,PubChemCID727,C1(C(C(C(C(C1Cl)Cl)Cl)Cl)Cl)Cl,JLYXXMFPNIAWKQ-UHFFFAOYSA-N,-4.6
"benzoic acid,4-amino-,heptyl ester",,CCCCCCCOC(=O)c1ccc(N)cc1,IAHJVNSZPMIREM-UHFFFAOYSA-N,-4.6001
,CHEMBL2164574,CCN(CCO)C(=O)c1cc2cccnn2c1c3cccc(c3)C(=O)Nc4ccccc4,IANHCWABIFYJCS-UHFFFAOYSA-N,-4.601760724
,CHEMBL2164563,CCN(CCO)C(=O)c1cc2cc(OC)cnn2c1c3cccc(c3)C(F)(F)F,KCACIGOHNKGOAR-UHFFFAOYSA-N,-4.601799454
,CHEMBL2164366,Fc1cnc(CCN2C(C(=O)NCc3ccc(OC(F)(F)F)cc3)c4ccccc4C2=O)nc1,LLBIIUQCQIOLNG-UHFFFAOYSA-N,-4.601804969
"phenol, 2,3,4,6-tetrachloro-5-methyl-",,Cc1c(Cl)c(O)c(Cl)c(Cl)c1Cl,ZGWPUIZMCCUZOK-UHFFFAOYSA-N,-4.6021
1-isothiocyanonaphthalene,,S=C=Nc1cccc2ccccc12,JBDOSUUXMYMWQH-UHFFFAOYSA-N,-4.6022
purpurin,,Oc1cc(O)c2C(=O)c3ccccc3C(=O)c2c1O,BBNQQADTFFCFGB-UHFFFAOYSA-N,-4.6024
sulfaquinoxaline,,Nc1ccc(cc1)[S](=O)(=O)Nc2cnc3ccccc3n2,NHZLNPMOSADWGC-UHFFFAOYSA-N,-4.6026
tricalcium diphosphate,,[Ca++].[Ca++].[Ca++].[O-][P]([O-])([O-])=O.[O-][P]([O-])([O-])=O,QORWJWZARLRLPR-UHFFFAOYSA-H,-4.605114666
3-(trimethoxysilyl)propyl prop-2-enoate,,CO[Si](CCCOC(=O)C=C)(OC)OC,KBQVDAIIQCXKPI-UHFFFAOYSA-N,-4.606388779
haloxyfop-methyl,,COC(=O)C(C)Oc1ccc(Oc2ncc(cc2Cl)C(F)(F)F)cc1,MFSWTRQUCLNFOM-UHFFFAOYSA-N,-4.6064
"4h-3,1-benzoxazin-4-one, 2-phenyl",,O=C1OC(=Nc2ccccc12)c3ccccc3,HTTLBYITFHMYFK-UHFFFAOYSA-N,-4.6084
hydrocortisone  acetate,,CC(=O)OCC(=O)C1(O)CCC2C3CCC4=CC(=O)CCC4(C)C3C(O)CC12C,ALEXXDVDDISNDU-UHFFFAOYSA-N,-4.61
1-(4-methylphenylsulfonyl)cyclohexanecarboxylic acid methyl ester,,COC(=O)C1(CCCCC1)[S](=O)(=O)C2=CC=C(C)C=C2,XBQBUJRJLAOQHD-UHFFFAOYSA-N,-4.61
"diflunisal;  1-carboxy-2-hydroxy-2',4'-difluorobiphenyl",,OC(=O)C1=CC(=CC=C1O)C2=C(F)C=C(F)C=C2,HUPFGZXOMWLGNK-UHFFFAOYSA-N,-4.61
"2-Phenyl-3,1-benzoxazin-4-one",,c1ccc2C(=O)N=C(c3ccccc3)Oc2c1,GWDYJKXSUSPLEA-UHFFFAOYSA-N,-4.61
griseofulvin,,COC1CC(=O)C[C@@H](C)[C@]12Oc3c(Cl)c(OC)cc(OC)c3C2=O,IIUZTXTZRGLYTI-LKUJNTHKSA-N,-4.611
"1-methyl 1,2,2,6,6-pentamethylpiperidin-4-yl decanedioate bis(1,2,2,6,6-pentamethylpiperidin-4-yl) decanedioate",,COC(=O)CCCCCCCCC(=O)OC1CC(C)(C)N(C)C(C)(C)C1.CN2C(C)(C)CC(CC2(C)C)OC(=O)CCCCCCCCC(=O)OC3CC(C)(C)N(C)C(C)(C)C3,YHEPZZFDBQOSSN-UHFFFAOYSA-N,-4.611221235
Indinavir Sulfate,CAS157810-81-6,CC(C)(C)NC(=O)[C@@H]1CN(Cc2cccnc2)CCN1C[C@@H](O)C[C@@H](Cc1ccccc1)C(=O)N[C@H]1c2ccccc2C[C@H]1O.O=S(=O)(O)O,NUBQKPWHXMGDLP-BDEHJDMKSA-N,-4.61
Vertofix,,CC1CCC2C(C)(C)C3CC12CC(=C3C)C(C)=O,YBUIAJZFOGJGLJ-UHFFFAOYSA-N,-4.613478878
pyrethrin ii,,COC(=O)C(/C)=C/[C@@H]1[C@@H](C(=O)O[C@H]2CC(=O)C(=C2C)C\C=C/C=C)C1(C)C,VJFUPGQZSXIULQ-XIGJTORUSA-N,-4.6168
"4-methyl-1,1'-biphenyl",,Cc1ccc(cc1)c2ccccc2,ZZLCFHIKESPLTH-UHFFFAOYSA-N,-4.6185
,CHEMBL2164570,CCN(CCO)C(=O)c1nc2cccnc2n1c3cccc(c3)C(F)(F)F,TUNLNLMSYLQKKG-UHFFFAOYSA-N,-4.619536569
dodecanoic acid,,CCCCCCCCCCCC(O)=O,POULHZVOKOAJMA-UHFFFAOYSA-N,-4.619583571
"2-[({2,2,4-trimethyl-6-[({2-[(2-methylprop-2-enoyl)oxy]ethoxy}carbonyl)amino]hexyl}carbamoyl)oxy]ethyl 2-methylprop-2-enoate 2-[({2,4,4-trimethyl-6-[({2-[(2-methylprop-2-enoyl)oxy]ethoxy}carbonyl)amino]hexyl}carbamoyl)oxy]ethyl 2-methylprop-2-enoate",,CC(CCNC(=O)OCCOC(=O)C(C)=C)CC(C)(C)CNC(=O)OCCOC(=O)C(C)=C,UEKHZPDUBLCUHN-UHFFFAOYSA-N,-4.619923834
1-(4-methylphenylsulfonyl)cyclohexanecarboxylic acid isopropyl ester,,CC(C)OC(=O)C1(CCCCC1)[S](=O)(=O)C2=CC=C(C)C=C2,IXSGKTPWQQPRAU-UHFFFAOYSA-N,-4.62
6-(s-octanoyloxymethyl)mercaptopurine;  6-(octanoyloxymethylthio)purine,,CCCCCCCC(=O)OCSC1=NC=NC2=C1N=C[NH]2,RLAQXWWETVAEAC-UHFFFAOYSA-N,-4.62
"2-{2-[(2,6-dichlorophenyl)amino]phenyl}acetic acid",,OC(=O)Cc1ccccc1Nc2c(Cl)cccc2Cl,DCOPUUMXTXDBNB-UHFFFAOYSA-N,-4.620257788
3-hydroxy-N-(2-methylphenyl)naphthalene-2-carboxamide,,Cc1ccccc1NC(=O)c2cc3ccccc3cc2O,FBLAHUMENIHUGG-UHFFFAOYSA-N,-4.623441954
methyl decanoate,,CCCCCCCCCC(=O)OC,YRHYCMZPEVDGFQ-UHFFFAOYSA-N,-4.626748523
bibenzyl,,C(Cc1ccccc1)c2ccccc2,QWUWMCYKGHVNAV-UHFFFAOYSA-N,-4.6272
"ethyl 1-(4-methoxyphenyl)-7-oxo-6-[4-(2-oxopiperidin-1-yl)phenyl]-1H,4H,5H,6H,7H-pyrazolo[3,4-c]pyridine-3-carboxylate",,CCOC(=O)c1nn(c2ccc(OC)cc2)c3C(=O)N(CCc13)c4ccc(cc4)N5CCCCC5=O,PULNLYVCJSOXKS-UHFFFAOYSA-N,-4.628205844
norethindrone;  norethisterone,,CC12CCC3C(CCC4=CC(=O)CCC34)C1CCC2(O)C#C,VIKNJXKGJWUCNN-UHFFFAOYSA-N,-4.63
phoxim,,CCO[P](=S)(OCC)O\N=C(C#N)\c1ccccc1,ATROHALUCMTWTB-WYMLVPIESA-N,-4.63
acenaphthene,,c1ccc2cccc3c2c1CC3,CWRYPZZKDGJXCA-UHFFFAOYSA-N,-4.63
1-[(4-chlorophenyl)-phenylmethyl]-4-[(3-methylphenyl)methyl]piperazine,,CC1=CC=CC(CN2CCN(C(C3=CC=CC=C3)C3=CC=C(Cl)C=C3)CC2)=C1,OCJYIGYOJCODJL-UHFFFAOYSA-N,-4.63
7-(3-amino-2-methylazetidin-1-yl)-1-cyclopropyl-6-fluoro-4-oxoquinoline-3-carboxylic acid,,CC1C(N)CN1C1=CC2=C(C=C1F)C(=O)C(C(=O)O)=CN2C1CC1,BYUOTYDQGYSLFD-UHFFFAOYSA-N,-4.63
deoxycorticosterone acetate,,CC(=O)OCC(=O)[C@H]1CC[C@H]2[C@@H]3CCC4=CC(=O)CC[C@]4(C)[C@H]3CC[C@]12C,VPGRYOFKCNULNK-ACXQXYJUSA-N,-4.6301
"2,4-dichlorodiphenyl ether",,Clc1ccc(Oc2ccccc2)c(Cl)c1,KXIPYLZZJZMMPD-UHFFFAOYSA-N,-4.6304
2-methyldecanenitrile,,CCCCCCCCC(C)C#N,XPCSGXMQGQGBKU-UHFFFAOYSA-N,-4.63242095
dicyclopentyldimethoxysilane,,CO[Si](OC)(C1CCCC1)C2CCCC2,JWCYDYZLEAQGJJ-UHFFFAOYSA-N,-4.632799679
RTI 16,,CCN2c1ncccc1N(C)C(=S)c3cccnc23 ,YNARWAUTTJJADX-UHFFFAOYSA-N,-4.634
dodecyl 2-hydroxypropanoate,,CCCCCCCCCCCCOC(=O)C(C)O,QQQMUBLXDAFBRH-UHFFFAOYSA-N,-4.63414462
"9,10-dihydrophenanthrene",,C1Cc2ccccc2c3ccccc13,XXPBFNVKTVJZKF-UHFFFAOYSA-N,-4.6347
rimsulfuron,,CC[S](=O)(=O)c1cccnc1[S](=O)(=O)NC(=O)Nc2nc(OC)cc(OC)n2,MEFOUWRMVYJCQC-UHFFFAOYSA-N,-4.6349
2-ethylhexyl 2-sulfanylacetate,,CCCCC(CC)COC(=O)CS,OWHSTLLOZWTNTQ-UHFFFAOYSA-N,-4.635481621
,CHEMBL1682822,O=C1CCOc2nc(ccc12)C#CC3CCCC3,XIWPULFTGOZCOX-UHFFFAOYSA-N,-4.637948566
,CHEMBL2180031,COc1c(C)cc(cc1C)C2(N=C(C)C(=N2)N)c3cccc(c3)c4cncc(c4)C#CC,KQOKXSWNRISXBF-UHFFFAOYSA-N,-4.637954089
,CHEMBL1682792,O=C1CCOc2nc(ccc12)C#Cc3ccccc3,PTFPDJNGFQEXOG-UHFFFAOYSA-N,-4.637956649
,CHEMBL3634886,Nc1nc2nc(ncc2c(N)c1C#N)C3CC3,GSNXTYKLWYDUOY-UHFFFAOYSA-N,-4.637996985
4-amino-4'-chlorodiphenyl,,Nc1ccc(cc1)c2ccc(Cl)cc2,OREQWMWYRYXCDF-UHFFFAOYSA-N,-4.6383
Fosinoprilat,CAS95399-71-6,O=C(O)[C@@H]1C[C@@H](C2CCCCC2)CN1C(=O)CP(=O)(O)CCCCc1ccccc1,WOIWWYDXDVSWAZ-RTWAWAEBSA-N,-4.64
"phenol, 2,4-dichloro-6-(phenylmethyl)-",,Oc1c(Cl)cc(Cl)cc1Cc2ccccc2,MJTIYXIISJNFMG-UHFFFAOYSA-N,-4.6399
Cyclosporine,,CCC1NC(=O)C(C(O)C(C)C\C=C\C)N(C)C(=O)C(C(C)C)N(C)C(=O)C(CC(C)C)N(C)C(=O)C(CC(C)C)N(C)C(=O)C(C)NC(=O)C(C)NC(=O)C(CC(C)C)N(C)C(=O)C(NC(=O)C(CC(C)C)N(C)C(=O)CN(C)C1=O)C(C)C,PMATZTZNYRCHOR-IMVLJIQESA-N,-4.64
dihydroequilenin,,CC12CCC3=C(C=CC4=C3C=CC(=C4)O)C1CCC2O,RYWZPRVUQHMJFF-UHFFFAOYSA-N,-4.64
4-nitro-n-(4-methoxyphenyl)benzenesulfonamide;  1-(4-nitrophenylsulfonamido)-4-methoxybenzene,,COC1=CC=C(N[S](=O)(=O)C2=CC=C(C=C2)[N+]([O-])=O)C=C1,PGNXXIOBJLPXFL-UHFFFAOYSA-N,-4.64
pentylbenzene,,CCCCCc1ccccc1,PWATWSYOIIXYMA-UHFFFAOYSA-N,-4.6434
(3Z)-hex-3-en-1-yl 2-hydroxybenzoate,,CC/C=C/CCOC(=O)c1ccccc1O,IEPWIPZLLIOZLU-ONEGZZNKSA-N,-4.643981404
sparticide,,Fc1ccc(cc1)N2C(=O)C(=C(Cl)C2=O)Cl,IPENDKRRWFURRE-UHFFFAOYSA-N,-4.6442
2-ethylhexyl acetate,,CCCCC(CC)COC(C)=O,WOYWLLHHWAMFCB-UHFFFAOYSA-N,-4.645140005
isopropyl (1-(4-chloro)phenylsulfonyl) cyclopent,,CC(C)OC(=O)C1(CCCC1)[S](=O)(=O)c2ccc(Cl)cc2,AWDYZLGQTRYRJA-UHFFFAOYSA-N,-4.6498
Pregnenolone,,C1C(O)CC2=CCC3C4CCC(C(=O)C)C4(C)CCC3C2(C)C1,ORNBQBCIOKFOEO-UHFFFAOYSA-N,-4.65
2-oxopropyl 2-(6-methoxynaphthalen-2-yl)propanoate,,COC1=CC=C2C=C(C(C)C(=O)OCC(C)=O)C=CC2=C1,IDXDYIBZJCWLPS-UHFFFAOYSA-N,-4.65
pregnenolone,,CC(=O)[C@H]1CC[C@H]2[C@@H]3CC=C4C[C@@H](O)CC[C@]4(C)[C@H]3CC[C@]12C,ORNBQBCIOKFOEO-QGVNFLHTSA-N,-4.652
"N,N-dimethylhexadecan-1-amine",,CCCCCCCCCCCCCCCCN(C)C,NHLUVTZJQOJKCC-UHFFFAOYSA-N,-4.652434914
"4,4,8,8-tetramethyloctahydro-4a,7-methanonaphtho[1,8a-b]oxirene",,CC1(C)CCC2OC23C(C)(C)C4CCC13C4,VQHLGZRKOZIABH-UHFFFAOYSA-N,-4.6529288
"2-methyl-4-(2,6,6-trimethylcyclohex-2-en-1-yl)butanal",,CC(CCC=O)C1C(=CCCC1(C)C)C,ACVNYUMGXUDACR-UHFFFAOYSA-N,-4.653202091
N-(4-carbamoylphenyl)-4-methoxy-3-nitrobenzamide,,COc1ccc(cc1[N+]([O-])=O)C(=O)Nc2ccc(cc2)C(N)=O,JXHSJUAPWJKPLE-UHFFFAOYSA-N,-4.653605269
,CHEMBL252956,O=C1CCCc2nc(ccc12)C#Cc3ccccc3,XOUDFZJCSDKXLG-UHFFFAOYSA-N,-4.657243007
,CHEMBL2414336,COc1cncc(c1)c2cc(ccn2)c3cn4cccc(C(=O)N)c4n3,IPWQXZXIRRXLCO-UHFFFAOYSA-N,-4.657291227
,CHEMBL2164572,CCN(CCO)C(=O)c1cc2cccnn2c1c3ccc(cc3)C(F)(F)F,KWDPKDVJPUZDNU-UHFFFAOYSA-N,-4.657318423
dehydroabietic acid,,CC(C)c1ccc2c(CC[C@H]3[C@@](C)(CCC[C@]23C)C(O)=O)c1,NFWKVWVWBFBAOV-MISYRCLQSA-N,-4.6582
sodium 4-(4-(2-hydroxynaphthalenylazo)phenylazo)benzenesulphonate,,[Na+].O[S](=O)(=O)c1ccc(cc1)N=Nc2ccc(N\N=C3/C(=O)C=Cc4ccccc34)cc2,AXECONFFMZNCKN-SRZPWQCFSA-N,-4.65844166
tert-butoxy 2-ethylhexyl carbonate,,CCCCC(CC)COC(=O)OOC(C)(C)C,BRQMAAFGEXNUOL-UHFFFAOYSA-N,-4.659958513
testosterone  phenylacetate,,CC12CCC3C(CCC4=CC(=O)CCC34C)C1CCC2OC(=O)CC5=CC=CC=C5,WIJSFCWRMNIREB-UHFFFAOYSA-N,-4.66
"myclozolin; 3-(3,5-dichlorophenyl)-5-methoxymethyl-5-methyl-oxazolidine-2,4-dione",,COCC1(C)OC(=O)N(C1=O)C2=CC(=CC(=C2)Cl)Cl,FTCOKXNKPOUEFH-UHFFFAOYSA-N,-4.66
"2,3-dihydroxypropyl laurate",,CCCCCCCCCCCC(=O)OCC(O)CO,ARIWANIATODDMH-UHFFFAOYSA-N,-4.660234439
3-methyl-4'-nitrodiphenyl ether,,Cc1cccc(Oc2ccc(cc2)[N+]([O-])=O)c1,DLKBRTKDSDXWNA-UHFFFAOYSA-N,-4.6613
"4-({4-[bis(oxiran-2-ylmethyl)amino]phenyl}methyl)-N,N-bis(oxiran-2-ylmethyl)aniline",,C1OC1CN(CC2CO2)c3ccc(Cc4ccc(cc4)N(CC5CO5)CC6CO6)cc3,FAUAZXVRLVIARB-UHFFFAOYSA-N,-4.662064583
Isradipine,CAS75695-93-1,COC(=O)C1=C(C)NC(C)=C(C(=O)OC(C)C)C1c1cccc2nonc12,HMJIYCCIJYRONP-UHFFFAOYSA-N,-4.67
"N-{2-[(E)-2-(2-chloro-4,6-dinitrophenyl)diazen-1-yl]-5-(diethylamino)-4-methoxyphenyl}acetamide",,CCN(CC)c1cc(NC(C)=O)c(cc1OC)N=Nc2c(Cl)cc(cc2[N+]([O-])=O)[N+]([O-])=O,LJIKWZXCXJFCCB-UHFFFAOYSA-N,-4.667327783
cobalt(2+) oxalate,,[Co++].[O-]C(=O)C([O-])=O,MULYSYXKGICWJF-UHFFFAOYSA-L,-4.667787925
"Butene, homopolymer (products derived from either/or But-1-ene/But-2-ene)",,CCC=C.C\C=C\C,WTOOLIQYCQJDBG-BJILWQEISA-N,-4.669843542
1-lauryl-2-pyrrolodone,,CCCCCCCCCCCCN1CCCC1=O,NJPQAIBZIHNJDO-UHFFFAOYSA-N,-4.67
octyl 4-hydroxy-3-iodobenzoate,,CCCCCCCCOC(=O)C1=CC(I)=C(O)C=C1,LEFFMFUNHSGTAE-UHFFFAOYSA-N,-4.67
"2,2,4-trimethylpentane",,CC(C)CC(C)(C)C,NHTMVDHEPJAVLT-UHFFFAOYSA-N,-4.6704
"3,7,7-trimethylbicyclo[4.1.0]hept-3-ene",,CC1=CCC2C(C1)C2(C)C,BQOFWKZOCNGFEC-UHFFFAOYSA-N,-4.670405271
"6,8-bis(phenylamino)naphthalene-1-sulfonic acid",,O[S](=O)(=O)c1cccc2cc(Nc3ccccc3)cc(Nc4ccccc4)c12,USFSONWQSVCJBO-UHFFFAOYSA-N,-4.672502907
"tetrakis(1,2,2,6,6-pentamethylpiperidin-4-yl) butane-1,2,3,4-tetracarboxylate",,CN1C(C)(C)CC(CC1(C)C)OC(=O)CC(C(CC(=O)OC2CC(C)(C)N(C)C(C)(C)C2)C(=O)OC3CC(C)(C)N(C)C(C)(C)C3)C(=O)OC4CC(C)(C)N(C)C(C)(C)C4,WUPCFMITFBVJMS-UHFFFAOYSA-N,-4.672731896
"4-[4-(4-chlorophenyl)-4-hydroxypiperidin-1-yl]-N,N-dimethyl-2,2-diphenylbutanamide",,[H+].[Cl-].CN(C)C(=O)C(CCN1CCC(O)(CC1)c2ccc(Cl)cc2)(c3ccccc3)c4ccccc4,PGYPOBZJRVSMDS-UHFFFAOYSA-N,-4.673121562
"magnesium(2+) ion bis(2,3-dinonylnaphthalene-1-sulfonate)",,[Mg++].CCCCCCCCCc1cc2ccccc2c(c1CCCCCCCCC)[S]([O-])(=O)=O.CCCCCCCCCc3cc4ccccc4c(c3CCCCCCCCC)[S]([O-])(=O)=O,QGEKBXUETMOETP-UHFFFAOYSA-L,-4.674472917
calcium bis(3-nitro-4-{[2-oxo-1-(phenylcarbamoyl)propyl]diazenyl}benzenesulfonate),,[Ca++].CC(=O)C(N=Nc1ccc(cc1[N+]([O-])=O)[S]([O-])(=O)=O)C(=O)Nc2ccccc2.CC(=O)C(N=Nc3ccc(cc3[N+]([O-])=O)[S]([O-])(=O)=O)C(=O)Nc4ccccc4,VWDVUHHOWAILLC-UHFFFAOYSA-L,-4.674562122
"(2-methyl-1-oxo-1-prop-2-enoxypropan-2-yl) 2-chloro-5-[3-methyl-2,6-dioxo-4-(trifluoromethyl)pyrimidin-1-yl]benzoate",,CN1C(=O)N(C(=O)C=C1C(F)(F)F)c2ccc(Cl)c(c2)C(=O)OC(C)(C)C(=O)OCC=C,JEDYYFXHPAIBGR-UHFFFAOYSA-N,-4.676528089
fluspirilene,,Fc1ccc(cc1)C(CCCN2CCC3(CC2)N(CNC3=O)c4ccccc4)c5ccc(F)cc5,QOYHHIBFXOOADH-UHFFFAOYSA-N,-4.6772
"2,2,3-trimethylpentane",,CCC(C)C(C)(C)C,XTDQDBVBDLYELW-UHFFFAOYSA-N,-4.6776
dimethyl(octadecyl)amine,,[Cl-].CCCCCCCCCCCCCCCCCC[NH+](C)C,PFKRTWCFCOUBHS-UHFFFAOYSA-N,-4.678690034
"3-pentanoyloxymethylphenytoin;  5,5-diphenyl-3-pentanoyloxymethylhydantoin",,CCCCC(=O)OCN1C(=O)NC(C1=O)(C2=CC=CC=C2)C3=CC=CC=C3,XCEYNQCFXXAOBL-UHFFFAOYSA-N,-4.68
dicapthon;  dicaptan,,CO[P](=S)(OC)OC1=C(Cl)C=C(C=C1)[N+]([O-])=O,OTKXWJHPGBRXCR-UHFFFAOYSA-N,-4.68
3-iodophenyl  isothiocyanate;  3-isothiocyanatoiodobenzene,,IC1=CC=CC(=C1)N=C=S,LKCSXVAACHUTGC-UHFFFAOYSA-N,-4.68
"[2,5-dioxo-4,4-di(phenyl)imidazolidin-1-yl]methyl butanoate",,CCCC(=O)OCN1C(=O)NC(C2=CC=CC=C2)(C2=CC=CC=C2)C1=O,UPQWMVAELITTGQ-UHFFFAOYSA-N,-4.68
"1,2,3,5-Tetrachlorobenzene  ",,ClC1=CC(Cl)=C(Cl)C(Cl)=C1,QZYNWJQFTJXIRN-UHFFFAOYSA-N,-4.68
2-[2-(4-methylcyclohex-3-en-1-yl)propyl]cyclopentan-1-one,,CC(CC1CCCC1=O)C2CCC(=CC2)C,KNHGOYVXAHUDHP-UHFFFAOYSA-N,-4.680367049
3-(chloromethyl)heptane,,CCCCC(CC)CCl,WLVCBAMXYMWGLJ-UHFFFAOYSA-N,-4.680882096
ipconazole,,CC(C)C1CCC(Cc2ccc(Cl)cc2)C1(O)Cn3cncn3,QTYCMDBMOLSEAM-UHFFFAOYSA-N,-4.6828
bayer 15080,,O=Nc1ccc(NNC(=O)c2ccccc2)cc1,ORLIFVYIUIQGOA-UHFFFAOYSA-N,-4.6835
cyclododecyl methyl ether,,COC1CCCCCCCCCCC1,WDSOYUINLRIGNV-UHFFFAOYSA-N,-4.683590383
rhodium(3+) ion triiodide,,[Rh+3].[I-].[I-].[I-],KXAHUXSHRWNTOD-UHFFFAOYSA-K,-4.684502457
"2,4,4-trimethylpent-1-ene",,CC(=C)CC(C)(C)C,FXNDIJDIPNCZQJ-UHFFFAOYSA-N,-4.688326948
maprotiline,,CNCCCC12CCC(C3=C1C=CC=C3)C4=C2C=CC=C4,QSLMDECMDJKHMQ-UHFFFAOYSA-N,-4.69
heptadecanoic acid;  margaric acid,,CCCCCCCCCCCCCCCCC(O)=O,KEMQGTRYUADPNZ-UHFFFAOYSA-N,-4.69
prasterone  propionate,,CCC(=O)OC1CCC2(C)C3CCC4(C)C(CCC4=O)C3CC=C2C1,XECLXJZDYKMJFL-UHFFFAOYSA-N,-4.69
Methyl_Laurate,,O=C(OC)CCCCCCCCCCC,UQDUPQYQJKYHQI-UHFFFAOYSA-N,-4.69
"1,1'-ethane-1,1-diyldibenzene",,CC(c1ccccc1)c2ccccc2,BSZXAFXFTLXUFV-UHFFFAOYSA-N,-4.692503939
1-benzyl-2-methylbenzene; 1-benzyl-3-methylbenzene; 1-benzyl-4-methylbenzene,,Cc1ccccc1Cc2ccccc2,PQTAUFTUHHRKSS-UHFFFAOYSA-N,-4.692503939
Naphthalimide,,O=C1NC(=O)c2cccc3cccc1c23,XJHABGPPCLHLLV-UHFFFAOYSA-N,-4.692831503
3-chloro-4-[(3-fluorophenyl)methoxy]aniline,,Nc1ccc(OCc2cccc(F)c2)c(Cl)c1,AYPFEYDGZDPAPE-UHFFFAOYSA-N,-4.693292334
Dibenzo-18-crown-6,,C1COc2ccccc2OCCOCCOc3ccccc3OCCO1,YSSSPARMOAYJTE-UHFFFAOYSA-N,-4.6935
fenpiclonil,,Clc1cccc(c1Cl)c2c[nH]cc2C#N,FKLFBQCQQYDUAM-UHFFFAOYSA-N,-4.6937
flutolanil,,CC(C)Oc1cccc(NC(=O)c2ccccc2C(F)(F)F)c1,PTCGDEVVHUXTMP-UHFFFAOYSA-N,-4.6947
"2,3,4-trimethylpentane",,CC(C)C(C)C(C)C,RLPGDEORIPLBNF-UHFFFAOYSA-N,-4.6961
,CHEMBL2164367,CC1(N(CCc2ccccn2)C(=O)c3ccccc13)C(=O)NCc4ccc(OC(F)(F)F)cc4,LLSVHDOQSGNTLD-UHFFFAOYSA-N,-4.698693615
,CHEMBL2164397,FC(F)(F)Oc1ccc(CNC(=O)C2N(CCC3CCOCC3)C(=O)c4ccccc24)cc1,LWAACTJZSQSIBS-UHFFFAOYSA-N,-4.698703822
procyclidine,,OC(CCN1CCCC1)(C2CCCCC2)C3=CC=CC=C3,WYDUSKDSKCASEF-UHFFFAOYSA-N,-4.7
n-pentyl-thalidomide,,CCCCCN1C(=O)CCC(N2C(=O)C3=C(C=CC=C3)C2=O)C1=O,ZSOMRRRVYGRIMH-UHFFFAOYSA-N,-4.7
"1,3-diisothiocyanatobenzene",,S=C=NC1=CC=CC(=C1)N=C=S,BOLANQNHTGVOMY-UHFFFAOYSA-N,-4.7
carprofen;  6-chloro-alpha-methyl-9h-carbazole-2-acetic acid,,CC(C(O)=O)C1=CC2=C(C=C1)C3=C([NH]2)C=CC(=C3)Cl,PUXBGTOOZJQSKH-UHFFFAOYSA-N,-4.7
boc-phe-his-achpa-leu-nh-ch2-ph-3-ch2-nh2 (analog 12),,CC(C)CC(NC(=O)CC(O)C(CC1CCCCC1)NC(=O)C(CC2=C[NH]C=N2)NC(=O)C(CC3=CC=CC=C3)NC(=O)OC(C)(C)C)C(=O)NCC4=CC=CC(=C4)CN,QIGZLJVYYYXMIH-UHFFFAOYSA-N,-4.7
Thiopropazate,,CC(=O)OCCN4CCN(CCCN2c1ccccc1Sc3ccc(Cl)cc23)CC4,AIUHRQHVWSUTGJ-UHFFFAOYSA-N,-4.7
"7-chloro-3',6-diethoxy-4-methoxy-5'-methylspiro[1-benzofuran-2,4'-cyclohex-2-ene]-1',3-dione",,CCOC1=CC(=O)CC(C)C12OC1=C(C2=O)C(OC)=CC(OCC)=C1Cl,ANHLDWAKGVPKNR-UHFFFAOYSA-N,-4.7
"3'-butoxy-7-chloro-4,6-dimethoxy-5'-methylspiro[1-benzofuran-2,4'-cyclohex-2-ene]-1',3-dione",,CCCCOC1=CC(=O)CC(C)C12OC1=C(C2=O)C(OC)=CC(OC)=C1Cl,VYKVCWHSRHNRJY-UHFFFAOYSA-N,-4.7
"2-chloro-6a,7,8,9-tetrahydro-5H-pyrrolo[2,1-c][1,4]benzodiazepine-6,11-dione",,O=C1NC2=C(C=C(Cl)C=C2)C(=O)N2CCCC12,AUNHJVGFQWTEOA-UHFFFAOYSA-N,-4.7
fenoxycarb,,CCOC(=O)NCCOc1ccc(Oc2ccccc2)cc1,HJUFTIJOISQSKQ-UHFFFAOYSA-N,-4.7009
"2-quinolin-2-yl-1H-indene-1,3(2H)-dione",,O=C1C(c2ccc3ccccc3n2)C(=O)c4ccccc14,IZMJMCDDWKSTTK-UHFFFAOYSA-N,-4.701186127
"(4-tert-butyl-2,6-dimethylphenyl)acetonitrile",,Cc1cc(cc(C)c1CC#N)C(C)(C)C,ZUXNULGHCOXCFL-UHFFFAOYSA-N,-4.701811829
"13-ethyl-3-methoxy-4,6,7,8,9,11,12,13,14,15,16,17-dodecahydro-1H-cyclopenta[a]phenanthren-17-ol (non-preferred name)",,CC[C@]12CC[C@H]3[C@@H](CCC4=C3CC=C(C4)OC)[C@@H]1CC[C@@H]2O,DKGAZBPXLWEBPI-SLHNCBLASA-N,-4.702513826
RTI 17,,CCN2c1ccccc1N(C)C(=S)c3cccnc23 ,ZSLBEMKAJDJVND-UHFFFAOYSA-N,-4.706
17-alpha-hydroxyprogesterone,,CC(=O)[C@@]1(O)CC[C@H]2[C@@H]3CCC4=CC(=O)CC[C@]4(C)[C@H]3CC[C@]12C,DBPWSSGDRRHUNT-CEGNMAFCSA-N,-4.7076
"3,7,11,15-tetramethylhexadec-1-en-3-ol",,CC(C)CCCC(C)CCCC(C)CCCC(C)(O)C=C,KEVYVLWNCKMXJX-UHFFFAOYSA-N,-4.708653825
betamethasone-17-valerate,,CCCCC(=O)OC1(C(C)CC2C3CCC4=CC(=O)C=CC4(C)C3(F)C(O)CC12C)C(=O)CO,SNHRLVCMMWUAJD-UHFFFAOYSA-N,-4.71
17-a-hydroxyprogesterone,,CC(=O)C3(O)CCC4C2CCC1=CC(=O)CCC1(C)C2CCC34C,DBPWSSGDRRHUNT-UHFFFAOYSA-N,-4.71
betamethasone-17-valerate,,CCCCC(=O)O[C@@]1([C@@H](C)C[C@H]2[C@@H]3CCC4=CC(=O)C=C[C@]4(C)[C@@]3(F)[C@@H](O)C[C@]12C)C(=O)CO,SNHRLVCMMWUAJD-SUYDQAKGSA-N,-4.7101
benfuracarb,,CCOC(=O)CCN(SN(C)C(=O)Oc1cccc2CC(C)(C)Oc12)C(C)C,FYZBOYWSHKHDMT-UHFFFAOYSA-N,-4.7103
"2,6-di-tert-butylphenol",,CC(C)(C)c1cccc(c1O)C(C)(C)C,DKCPKDPYUFEZCP-UHFFFAOYSA-N,-4.713587378
"2-propenoic acid, 7-bromo-5-chloro-8-quinolinyl",,Clc1cc(Br)c(OC(=O)C=C)c2ncccc12,YDNLKBDXQCHOTH-UHFFFAOYSA-N,-4.7168
n-(4-ethoxyphenyl)-4-nitrobenzenesulfonamide,,CCOC1=CC=C(N[S](=O)(=O)C2=CC=C(C=C2)[N+]([O-])=O)C=C1,BUCSZBGRXQNNMQ-UHFFFAOYSA-N,-4.72
indoprofen,,CC(C(O)=O)C1=CC=C(C=C1)N2CC3=C(C=CC=C3)C2=O,RJMIEHBSYVWVIN-UHFFFAOYSA-N,-4.72
"2,3-dimethylnaphthalene",,Cc1c(C)cc2ccccc2c1,WWGUMAYGTYQSGA-UHFFFAOYSA-N,-4.72
2-NITRO-9H-FLUORENE,,C1C2=CC=CC=C2C3=C1C=C(C=C3)[N+](=O)[O-],XFOHWECQTFIEIX-UHFFFAOYSA-N,-4.72
"3,4-dichlorodiphenyl ether",,Clc1ccc(Oc2ccccc2)cc1Cl,QFQLZVAAQOJUFS-UHFFFAOYSA-N,-4.7206
,CHEMBL1209584,Fc1ccc(c(F)c1)S(=O)(=O)NCC(N2CCCCCC2)c3ccccc3,DWKZOFXMRGMYGZ-UHFFFAOYSA-N,-4.720885866
,CHEMBL2164390,FC(F)(F)Oc1cccc(CNC(=O)C2N(CCc3ccccn3)C(=O)c4ccccc24)c1,FIBXTZWHBIXYFR-UHFFFAOYSA-N,-4.720975185
4-methylphenylisothiocyanate,,Cc1ccc(cc1)N=C=S,ABQKHKWXTUVKGF-UHFFFAOYSA-N,-4.7213
kinoprene,,CC(C)CCCC(C)C\C=C\C(C)=C\C(=O)OCC#C,FZRBKIRIBLNOAM-WHVZTFIZSA-N,-4.7239
"Glycerides, C16-22",,CCCCCCCCCCCCCCCC(=O)OCC(O)CO,QHZLMUACJMDIAE-UHFFFAOYSA-N,-4.726791601
dinoterb,,CC(C)(C)c1cc(cc(c1O)[N+]([O-])=O)[N+]([O-])=O,IIPZYDQGBIWLBU-UHFFFAOYSA-N,-4.7274
"n-(2,3-dichlorophenyl)benzenesulfonamide",,ClC1=CC=CC(=C1Cl)N[S](=O)(=O)C2=CC=CC=C2,VAIYLVSTCHKPAY-UHFFFAOYSA-N,-4.73
"n1-(2,3-dichlorophenyl)sulfanilamide",,NC1=CC=C(C=C1)[S](=O)(=O)NC2=CC=CC(=C2Cl)Cl,DUAASAVOKXBDLI-UHFFFAOYSA-N,-4.73
"1-[(9,9-dimethyldecyl)sulfanyl]propan-2-ol",,CC(O)CSCCCCCCCCC(C)(C)C,XROXSXGRRMHJFJ-UHFFFAOYSA-N,-4.730940692
anthranol,,Oc1c2ccccc2cc3ccccc13,AUKRYONWZHRJRE-UHFFFAOYSA-N,-4.7329
esprocarb,,CCN(C(C)C(C)C)C(=O)SCc1ccccc1,BXEHUCNTIZGSOJ-UHFFFAOYSA-N,-4.7337
"2-ethoxy-2,6,6-trimethyl-9-methylidenebicyclo[3.3.1]nonane",,CCOC1(C)CCC2C(=C)C1CCC2(C)C,LUNAXRIJWWBQTE-UHFFFAOYSA-N,-4.734296245
stanolone;   androstanolone;  dihydrotestosterone,,CC12CCC3C(CCC4CC(=O)CCC34C)C1CCC2O,NVKAWKQGWWIWPM-UHFFFAOYSA-N,-4.74
warfarin (hemiketal-isomer),,CC1(O)CC(C2=CC=CC=C2)C3=C(O1)C4=C(OC3=O)C=CC=C4,LSCYDZJASSKSMJ-UHFFFAOYSA-N,-4.74
celecoxib,,CC1=CC=C(C=C1)C2=CC(=N[N]2C3=CC=C(C=C3)[S](N)(=O)=O)C(F)(F)F,RZEKVGVHFLEQIL-UHFFFAOYSA-N,-4.74
"1,5-dimethylnaphthalene",,c1ccc2c(C)cccc2c1C,SDDBCEWUYXVGCQ-UHFFFAOYSA-N,-4.74
Mepazine,,c1ccc2Sc3ccccc3N(CC4CN(C)CCC4)c2c1,CBHCDHNUZWWAPP-UHFFFAOYSA-N,-4.74
Cedryl methyl ether,,CO[C@]1(C)CCC23C[C@@H]1C(C)(C)[C@@H]2CC[C@H]3C,HRGPYCVTDOECMG-FETWPZQLSA-N,-4.74017718
propylcyclopentane,,CCCC1CCCC1,KDIAMAVWIJYWHN-UHFFFAOYSA-N,-4.7404