Name,ID,SMILES,inchi,LogS
1-bromohexane,,CCCCCCBr,MNDIARAMWBIKFW-UHFFFAOYSA-N,-3.8078
"2,4-dichloro-1-methylbenzene",,Cc1ccc(Cl)cc1Cl,FUNUTBJJKQIVSY-UHFFFAOYSA-N,-3.808969481
xanthoxyletin,,COc1c2C=CC(=O)Oc2cc3OC(C)(C)C=Cc13,JSJIIHRNDMLJGK-UHFFFAOYSA-N,-3.81
retinol (all-trans);  vitamin a; vitamin a1,,CC(=C\CO)/C=C/C=C(C)/C=C/C1=C(C)CCCC1(C)C,FPIPGXGPPPQFEQ-OVSJKPMPSA-N,-3.81
dexclamol,,CC(C)C1(O)CCN2CC3C4=C(CCC5=C3C(=CC=C5)C2C1)C=CC=C4,UPMOVJBGNREKJV-UHFFFAOYSA-N,-3.81
"7-(3-amino-2-ethylazetidin-1-yl)-1-cyclopropyl-6,8-difluoro-4-oxoquinoline-3-carboxylic acid",,CCC1C(N)CN1C1=C(F)C2=C(C=C1F)C(=O)C(C(=O)O)=CN2C1CC1,IIVDVROKGKVRAD-UHFFFAOYSA-N,-3.81
"2-(morpholin-4-ylsulfanyl)-1,3-benzothiazole",,C1CN(CCO1)Sc2sc3ccccc3n2,MHKLKWCYGIBEQF-UHFFFAOYSA-N,-3.810962795
"2,4-deb",,Clc1ccc(OCCOC(=O)c2ccccc2)c(Cl)c1,LGURYBCSJPXHTF-UHFFFAOYSA-N,-3.8118
fluthiamide,,CC(C)N(C(=O)COc1sc(nn1)C(F)(F)F)c2ccc(F)cc2,IANUJLZYFUDJIH-UHFFFAOYSA-N,-3.8121
tridecanoic acid,,CCCCCCCCCCCCC(O)=O,SZHOJFHSIKHZHA-UHFFFAOYSA-N,-3.8126
"benzoic acid, 4-hydroxy-, pentyl ester",,CCCCCOC(=O)c1ccc(O)cc1,ZNSSPLQZSUWFJT-UHFFFAOYSA-N,-3.8135
cantharidin,,C[C@@]12[C@H]3CC[C@H](O3)[C@]1(C)C(=O)OC2=O,DHZBEENLJMYSHQ-XCVPVQRUSA-N,-3.8156
,CHEMBL1631023,C[C@H](Oc1ccc(cc1C(=O)N2Cc3ccc(cc3C2)C4CCOCC4)S(=O)(=O)C)C(F)(F)F,IHLMQHFPWQMCHB-HNNXBMFYSA-N,-3.815672435
"3,7-dimethylocta-1,6-dien-3-yl acetate",,CC(C)=CCCC(C)(OC(C)=O)C=C,UWKAYLJWKGQEPM-UHFFFAOYSA-N,-3.81577692
2-heptene,,CCCC\C=C\C,OTTZHAVKAVGASB-HWKANZROSA-N,-3.816
11-alpha-hydroxyprogesterone,,CC(=O)C1CCC2C3CCC4=CC(=O)CCC4(C)C3C(O)CC12C,BFZHCUBIASXHPK-UHFFFAOYSA-N,-3.82
cantharidin,,CC12C3CCC(O3)C1(C)C(=O)OC2=O,DHZBEENLJMYSHQ-UHFFFAOYSA-N,-3.82
"naproxen,  derivat 3b",,COC1=CC=C2C=C(C=CC2=C1)C(C)C(=O)OCCOC(=O)C(N)CC(C)C,GVNYQGKVULMAET-UHFFFAOYSA-N,-3.82
"naproxen,  derivat 3c",,CCC(C)C(N)C(=O)OCCOC(=O)C(C)C1=CC2=CC=C(OC)C=C2C=C1,ZNNNHDSEKOSIMH-UHFFFAOYSA-N,-3.82
"4-(4-bromo-2-fluorophenylamino)-n-ethoxy-1,5-dimethyl-6-oxo-1,6-dihydropyridine-3-carboxamide",,CCONC(=O)C1=CN(C)C(=O)C(=C1NC2=C(F)C=C(Br)C=C2)C,IKVITEMYFVVJFY-UHFFFAOYSA-N,-3.82
difloxacin,,CN1CCN(CC1)C2=CC3=C(C=C2F)C(=O)C(=CN3C4=CC=C(F)C=C4)C(O)=O,NOCJXYPHIIZEHN-UHFFFAOYSA-N,-3.82
fluorescein (red),,OC(=O)C1=CC=CC=C1C2=C3C=CC(=O)C=C3OC4=C2C=CC(=C4)O,YKGGGCXBWXHKIZ-UHFFFAOYSA-N,-3.82
trans-2-heptene,,CCCCC=CC,OTTZHAVKAVGASB-UHFFFAOYSA-N,-3.82
2-Nitronaphthalene,,C1=CC=C2C=C(C=CC2=C1)[N+](=O)[O-],ZJYJZEAJZXVAMF-UHFFFAOYSA-N,-3.82
"dipropyl benzene-1,2-dicarboxylate",,CCCOC(=O)C1=C(C(=O)OCCC)C=CC=C1,MQHNKCZKNAJROC-UHFFFAOYSA-N,-3.82
2-butoxy-5-nitroaniline,,CCCCOC1=C(C=C(C=C1)[N+](=O)[O-])N,ZQTPOMUMEJTURV-UHFFFAOYSA-N,-3.82
11-a-Hydroxyprogesterone  ,,CC(=O)C1CCC2C3CCC4=CC(=O)CC(O)C4(C)C3CCC12C,AARNXMRADQFOEB-UHFFFAOYSA-N,-3.82
"preg-4-ene-3,20-dione, 11-hydroxy-, (11.alpha.)-",,CC(=O)C1CC[C@H]2[C@@H]3CCC4=CC(=O)CC[C@]4(C)[C@H]3[C@H](O)C[C@]12C,BFZHCUBIASXHPK-ODYOLWGQSA-N,-3.8202
Dicyclopentadiene,,C1C=CC2C3CC(C=C3)C12,HECLRDQVFMWTQS-UHFFFAOYSA-N,-3.82022117
,CHEMBL1631196,CS(=O)(=O)c1ccc(OCc2ccccc2)c(c1)C(=O)N3Cc4cc(cnc4C3)C(F)(F)F,PKYPYFWOAAMLCH-UHFFFAOYSA-N,-3.820367293
fluorescein,,Oc1ccc2c(Oc3cc(O)ccc3C24OC(=O)c5ccccc45)c1,GNBHRKFJIUUOQI-UHFFFAOYSA-N,-3.8226
"sulfanilamide, n1-(5-isobutyl-1,3,4-thiadiazol-2",,CC(C)Cc1sc(N[S](=O)(=O)c2ccc(N)cc2)nn1,IDXLLBBFRBQZFE-UHFFFAOYSA-N,-3.8226
"ethyl 3,5,5-trimethylhexanoate",,CCOC(=O)CC(C)CC(C)(C)C,NMZMQQBBZRGLPJ-UHFFFAOYSA-N,-3.823043168
,CHEMBL2164883,CCN(CCO)C(=O)c1cc2ccccn2c1c3cccc(OC)c3,NXWPSNJCNAFOBE-UHFFFAOYSA-N,-3.823604529
,CHEMBL2164878,CCN(Cc1ccn[nH]1)C(=O)c2cc3cccnn3c2c4cccc(c4)C(F)(F)F,GPLAJTAVCOWXPL-UHFFFAOYSA-N,-3.823642184
1-amino-4-hydroxyanthraquinone,,Nc1ccc(O)c2C(=O)c3ccccc3C(=O)c12,AQXYVFBSOOBBQV-UHFFFAOYSA-N,-3.824
flumetsulam,,Cc1ccn2nc(nc2n1)[S](=O)(=O)Nc3c(F)cccc3F,RXCPQSJAVKGONC-UHFFFAOYSA-N,-3.8248
,CHEMBL2322764,CC(C)n1ncnc1c2cc3CCOc4cc(ccc4c3s2)C(=O)N,DJWGTNCIAUYYCQ-UHFFFAOYSA-N,-3.824868511
"disodium 5-{[bis(phenylamino)-1,3,5-triazin-2-yl]amino}-2-[(E)-2-(4-{[bis(phenylamino)-1,3,5-triazin-2-yl]amino}-2-sulfonatophenyl)ethenyl]benzene-1-sulfonate",,[Na+].[Na+].[O-][S](=O)(=O)c1cc(Nc2nc(Nc3ccccc3)nc(Nc4ccccc4)n2)ccc1\C=C\c5ccc(Nc6nc(Nc7ccccc7)nc(Nc8ccccc8)n6)cc5[S]([O-])(=O)=O,HOSFCSQXJQXSIQ-ZPZFBZIMSA-L,-3.825587453
"acetic acid, 1-(3,4-dichlorophenyl)-2,2,2-trichl",,CC(=O)OC(c1ccc(Cl)c(Cl)c1)C(Cl)(Cl)Cl,FSGNOVKGEXRRHD-UHFFFAOYSA-N,-3.8279
"2,4,5-tb",,OC(=O)CCCOc1cc(Cl)c(Cl)cc1Cl,RTWCZQFXFMXXKP-UHFFFAOYSA-N,-3.8294
"1,5-bis(butanoyloxymethyl)allopurinol",,CCCC(=O)OCN1C=NC2=C(C=N[N]2COC(=O)CCC)C1=O,QQAOTACZYKWDQH-UHFFFAOYSA-N,-3.83
"2,6-demethyl-kni-727",,CC(C)(C)NC(=O)C1N(CSC1(C)C)C(=O)C(O)C(CC2=CC=CC=C2)NC(=O)COC3=CC=CC=C3,GPNZSHBQHQEFRS-UHFFFAOYSA-N,-3.83
4-chloro-2-(furan-2-ylmethylamino)-5-sulfamoylbenzoic acid,,NS(=O)(=O)C1=C(Cl)C=C(NCC2=CC=CO2)C(C(=O)O)=C1,ZZUFCTLCJUWOSV-UHFFFAOYSA-N,-3.83
"(2E)-3,7-dimethylocta-2,6-dien-1-yl acetate",,CC(=O)OC/C=C(C)/CCC=C(C)C,HIGQPQRQIQDZMP-DHZHZOJOSA-N,-3.830500177
diclofop-methyl,,COC(=O)C(C)Oc1ccc(Oc2ccc(Cl)cc2Cl)cc1,BACHBFVBHLGWSL-UHFFFAOYSA-N,-3.834
"benzenamine, 2,4-dinitro-n-phenyl-",,[O-][N+](=O)c1ccc(Nc2ccccc2)c(c1)[N+]([O-])=O,RHTVQEPJVKUMPI-UHFFFAOYSA-N,-3.834
"2,2-dichloro-1-(3-methyl-2,3-dihydro-1,4-benzoxazin-4-yl)ethanone",,CC1COc2ccccc2N1C(=O)C(Cl)Cl,PFJJMJDEVDLPNE-UHFFFAOYSA-N,-3.835390149
"(Z)-N-(3-aminopropyl)-N'-[3-(9-octadecenylamino)propyl]propane-1,3-diamine",,CCCCCCCC/C=C/CCCCCCCCNCCCNCCCNCCCN,XWNMFDCGCAFWHB-MDZDMXLPSA-N,-3.836075758
diphenyltin dichloride,,Cl[Sn](Cl)(c1ccccc1)c2ccccc2,ISXUHJXWYNONDI-UHFFFAOYSA-L,-3.8373
"calcium 4,5-dichloro-2-[(E)-2-[3-methyl-5-oxo-1-(3-sulfonatophenyl)-4,5-dihydro-1H-pyrazol-4-yl]diazen-1-yl]benzene-1-sulfonate",,[Ca++].CC1=NN(c2cccc(c2)[S]([O-])(=O)=O)C(=O)C1N=Nc3cc(Cl)c(Cl)cc3[S]([O-])(=O)=O,KJAXOZTWNHRZQG-UHFFFAOYSA-L,-3.839084061
"1,2,4,5-tetramethylbenzene;  durene",,CC1=CC(=C(C)C=C1C)C,SQNZJJAZBFDUTD-UHFFFAOYSA-N,-3.84
tianafac,,CC1=C(CC(O)=O)SC2=C1C=CC(=C2)Cl,GGXDSIUMQOZKNP-UHFFFAOYSA-N,-3.84
stadacaine,,c1cc(OCCCC)ccc1C(=O)OCCN(CC)CC,QNIUOGIMJWORNZ-UHFFFAOYSA-N,-3.84
"4-aminonaphthalene-1,2-dione",,NC1=CC(=O)C(=O)C2=C1C=CC=C2,IGONFFFOEMASIA-UHFFFAOYSA-N,-3.84
stadacaine,,CCCCOc1ccc(C(=O)OCC)c(c1)N(CC)CC ,VZPIPJKBIZCCCK-UHFFFAOYSA-N,-3.84
4-(sec-butyl)-2-nitrophenol,,CCC(C)c1ccc(O)c(c1)[N+]([O-])=O,GCDCKEORRIGZKI-UHFFFAOYSA-N,-3.8403
Letrozole,CAS112809-51-5,N#Cc1ccc(C(c2ccc(C#N)cc2)n2cncn2)cc1,HPJKCIUCZWXJDR-UHFFFAOYSA-N,-3.84
(4-nonylphenoxy)acetic acid,,CCCCCCCCCc1ccc(OCC(O)=O)cc1,NISAHDHKGPWBEM-UHFFFAOYSA-N,-3.84259676
"2-methyl-4-(2,2,3-trimethylcyclopent-3-en-1-yl)butan-1-ol",,CC(CO)CCC1CC=C(C)C1(C)C,CYVGAJHMMVDTDZ-UHFFFAOYSA-N,-3.842746406
2-benzylheptan-1-ol,,CCCCCC(CO)Cc1ccccc1,CGMOOAUESLSUKM-UHFFFAOYSA-N,-3.843268562
,CHEMBL1209509,O=S(=O)(NCC(N1CCCCCC1)c2ccccc2)c3cccnc3,RMTHVVMPPIFDSQ-UHFFFAOYSA-N,-3.844273271
"5-nitropyrimidine-2,4,6-triamine",,Nc1nc(N)c(N=O)c(N)n1,XLQQJSWJHHKLOK-UHFFFAOYSA-N,-3.845472951
cyclododecanone,,O=C1CCCCCCCCCCC1,SXVPOSFURRDKBO-UHFFFAOYSA-N,-3.845829996
"2-{2-[(8E)-heptadec-8-en-1-yl]-4,5-dihydro-1H-imidazol-1-yl}ethan-1-ol",,CCCCCCCC\C=C/CCCCCCCC1=NCCN1CCO,WGTDLPBPQKAPMN-KTKRTIGZSA-N,-3.845830759
methylcyclohexane,,CC1CCCCC1,UAEPNZWRGJTJPN-UHFFFAOYSA-N,-3.845934801
1-methyl-4-(prop-1-en-2-yl)cyclohex-1-ene,,CC(=C)C1CCC(=CC1)C,XMGQYMWWDOXHJM-UHFFFAOYSA-N,-3.84649653
"2,4-d, isopropyl ester",,CC(C)OC(=O)COc1ccc(Cl)cc1Cl,WHOKDONDRZNCBC-UHFFFAOYSA-N,-3.848
"thidiazuron; 1-(1,2,3-thiadiazol-5-yl)-3-phenylurea",,O=C(NC1=CN=NS1)NC2=CC=CC=C2,HFCYZXMHUIHAQI-UHFFFAOYSA-N,-3.85
methyl 1-(phenylsulfonyl)cyclohexane-1-carboxylate; 1-(phenylsulfonyl)cyclohexanecarboxylic acid methyl ester,,COC(=O)C1(CCCCC1)[S](=O)(=O)C2=CC=CC=C2,QKXWKAIGVBVCPM-UHFFFAOYSA-N,-3.85
"3-(aziridin-1-yl)-4,6-dinitro-n-(isobutyl)benzamide",,CC(C)CNC(=O)C1=CC(=C(C=C1[N+]([O-])=O)[N+]([O-])=O)N2CC2,RRIIHXZPZQGCGU-UHFFFAOYSA-N,-3.85
"3,3-diphenylphthalide",,O=C1OC(C2=CC=CC=C2)(C3=CC=CC=C3)C4=C1C=CC=C4,WUBNJKMFYXGQDB-UHFFFAOYSA-N,-3.85
Aldosterone,,C1C(=O)C=C2CCC3C4CCC(C(=O)CO)C4(C5O)CC(O5)C3C2(C)C1,QUQBHBRVKLEOEI-UHFFFAOYSA-N,-3.85
3-[(4-hydroxyphenyl)diazenyl]benzoic acid,,O=C(O)C1=CC=CC(N=NC2=CC=C(O)C=C2)=C1,MGQRCDWAEYGOIZ-UHFFFAOYSA-N,-3.85
"[4-(furan-2-carbonyl)-2-oxido-1,2,5-oxadiazol-2-ium-3-yl]-furan-2-ylmethanone",,C1=COC(=C1)C(=O)C2=NO[N+](=C2C(=O)C3=CC=CO3)[O-],CFCYEMMQXVMYQE-UHFFFAOYSA-N,-3.85
aldosterone,,CC13CCC(=O)C=C1CCC4C2CCC(C(=O)CO)C2(CC(O)C34)C=O ,PQSUYGKTWSAVDQ-UHFFFAOYSA-N,-3.85
Cefprozil,CAS92665-29-7,C/C=C/C1=C(C(=O)O)N2C(=O)[C@@H](NC(=O)[C@H](N)c3ccc(O)cc3)[C@@H]2SC1,WDLWHQDACQUCJR-TZBKRISWSA-N,-3.85
3-methyl-7-propan-2-ylbicyclo[2.2.2]oct-3-ene-6-carbaldehyde,,CC(C)C1CC2=C(C)CC1C(C2)C=O,BNAYNPKNDLTBTJ-UHFFFAOYSA-N,-3.850854284
"N,N,N-trimethyloctadecan-1-aminium chloride",,[Cl-].CCCCCCCCCCCCCCCCCC[N+](C)(C)C,VBIIFPGSPJYLRR-UHFFFAOYSA-M,-3.851456788
"3,4-(methylenedioxy)cinnamic acid",,OC(=O)\C=C/c1ccc2OCOc2c1,QFQYZMGOKIROEC-RQOWECAXSA-N,-3.8523
piperine,,O=C(/C=C/C=C/c1ccc2OCOc2c1)N3CCCCC3,MXXWOMGUGJBKIW-YPCIICBESA-N,-3.853
"2-naphthalenebutanoic acid, .gamma.-oxo-",,OC(=O)CCC(=O)c1ccc2ccccc2c1,GZKLCZIMSAHQDR-UHFFFAOYSA-N,-3.8533
"[1,1'-biphenyl]-3-ol, 4-nitro-",,Oc1cc(ccc1[N+]([O-])=O)c2ccccc2,HYPKGPVDQYUOSV-UHFFFAOYSA-N,-3.8557
"2-amino-4,6(1h,5h)-pteridinedione;  2-amino-4,6-pteridinediole;  xanthopterine",,NC1=NC(=O)C2=C(N1)N=CC(=O)N2,VURKRJGMSKJIQX-UHFFFAOYSA-N,-3.86
5-Chloro-2-[(E)-(4-hydroxyphenyl)diazenyl]benzoic acid,,O=C(O)C1=C(N=NC2=CC=C(O)C=C2)C=CC(Cl)=C1,PFFPKQRMYJXVMY-UHFFFAOYSA-N,-3.86
4-(4-dimethylaminophenyl)diazenylbenzenesulfonic acid,,CN(C)C1=CC=C(N=NC2=CC=C(S(=O)(=O)O)C=C2)C=C1,IETWCRRCPURZOC-UHFFFAOYSA-N,-3.86
"2,3,5,6-tetrachloropyridine",,Clc1cc(Cl)c(Cl)nc1Cl,FATBKZJZAHWCSL-UHFFFAOYSA-N,-3.861424691
benzyl 2-phenylacetate,,O=C(Cc1ccccc1)OCc2ccccc2,MIYFJEKZLFWKLZ-UHFFFAOYSA-N,-3.86327488
etrimfos,,CCOc1cc(O[P](=S)(OC)OC)nc(CC)n1,FGIWFCGDPUIBEZ-UHFFFAOYSA-N,-3.8638
prometryne,,CSc1nc(NC(C)C)nc(NC(C)C)n1,AAEVYOVXGOFMJO-UHFFFAOYSA-N,-3.8642
3-amino-4-methoxy-N-phenylbenzamide,,COc1ccc(cc1N)C(=O)Nc2ccccc2,LHMQDVIHBXWNII-UHFFFAOYSA-N,-3.86580004
pentaerythritol tetranitrate,,[O-][N+](=O)OCC(CO[N+]([O-])=O)(CO[N+]([O-])=O)CO[N+]([O-])=O,TZRXHJWUDPFEEY-UHFFFAOYSA-N,-3.8664
"1,6-dibutyl hexanedioate",,CCCCOC(=O)CCCCC(=O)OCCCC,XTJFFFGAUHQWII-UHFFFAOYSA-N,-3.86815387
cyclanilide,,OC(=O)C1CC1C(=O)Nc2ccc(Cl)cc2Cl,DIOZMSACJPTBST-UHFFFAOYSA-N,-3.8697
"xanthine;  purine-2,6-dione;  2,6(1h,3h)-purinedione",,O=C1NC(=O)C2=C([NH]C=N2)N1,LRFVTYWOQMYALW-UHFFFAOYSA-N,-3.87
papaverine,,c1(nccc2cc(c(OC)cc12)OC)Cc1cc(c(cc1)OC)OC,XQYZDYMELSJDRZ-UHFFFAOYSA-N,-3.87
3-chloro-dimethyl parathion,,CO[P](=S)(OC)Oc1ccc(c(Cl)c1)[N+]([O-])=O,NZNRRXXETLSZRO-UHFFFAOYSA-N,-3.8717
"(1,5,5-trimethyl-6-bicyclo[2.2.1]heptanyl) acetate",,CC(=O)OC1C(C)(C)C2CCC1(C)C2,JUWUWIGZUVEFQB-UHFFFAOYSA-N,-3.874596884
"2,4,6-tri(tert-butyl)phenol",,CC(C)(C)c1cc(c(O)c(c1)C(C)(C)C)C(C)(C)C,PFEFOYRSMXVNEL-UHFFFAOYSA-N,-3.875
TALIPEXOLE,CHEMBL279085,Nc1nc2CCN(CC=C)CCc2s1,DHSSDEDRBUKTQY-UHFFFAOYSA-N,-3.875709649
methylcyclopentadienyl manganese,,[Mn].C[c-]1cccc1.[C-]#[O+].[C-]#[O+].[C-]#[O+],IYSGJCJSRBFZSZ-UHFFFAOYSA-N,-3.8762
bromuconazole,,Clc1ccc(c(Cl)c1)C2(CC(Br)CO2)Cn3cncn3,HJJVPARKXDDIQD-UHFFFAOYSA-N,-3.8775
mebendazole,,COC(=O)NC1=NC2=CC(=CC=C2[NH]1)C(=O)C3=CC=CC=C3,OPXLLQIJSORQAM-UHFFFAOYSA-N,-3.88
diphenylmethanone,,O=C(c1ccccc1)c2ccccc2,RWCCWEUUXYIKHB-UHFFFAOYSA-N,-3.882202908
Triazolam,CAS28911-01-5,Cc1nnc2n1-c1ccc(Cl)cc1C(c1ccccc1Cl)=NC2,JOFWLTCLBGQGBO-UHFFFAOYSA-N,-3.88
"1,7-dioxacycloheptadecan-8-one",,O=C1CCCCCCCCCOCCCCCO1,MKEIDVFLAWJKMY-UHFFFAOYSA-N,-3.8838495
,CHEMBL1682829,CN1CCOc2cc(OC(=O)c3ccccc3)cnc12,DTNUUARSOITKQB-UHFFFAOYSA-N,-3.885768033
,CHEMBL3634880,CC(C)(C)c1nc(c2ccc[nH]2)c3cc(C(=O)N)c(N)nc3n1,QZUNGZQACLCXSW-UHFFFAOYSA-N,-3.885782577
"2,4,5-trichloronitrobenzene",,[O-][N+](=O)c1cc(Cl)c(Cl)cc1Cl,IBRBMZRLVYKVRF-UHFFFAOYSA-N,-3.8866
flurenol-butyl,,CCCCOC(=O)C1(O)c2ccccc2c3ccccc13,PSGPXWYGJGGEEG-UHFFFAOYSA-N,-3.8885
,CHEMBL2347993,CN(C)CCCn1nc(c2cnc3[nH]cc(C(=O)NC(C)(C)CO)c3n2)c4ccc(C)cc14,YVQSMIMOPKDASQ-UHFFFAOYSA-N,-3.889063885
Cefditoren Pivoxil,CAS117467-28-4,CO/N=C(\C(=O)N[C@@H]1C(=O)N2C(C(=O)OCOC(=O)C(C)(C)C)=C(/C=C\c3scnc3C)CS[C@H]12)c1csc(N)n1,AFZFFLVORLEPPO-UVYJNCLZSA-N,-3.89
"2-hydroxy-n-(3,5-dimethyl-4-isoxazolyl)-1,4-naphthoquinone-4-imine",,CC1=C(N=C2C=C(O)C(=O)C3=C2C=CC=C3)C(=NO1)C,JNQQEDYUWRZNDU-UHFFFAOYSA-N,-3.89
flupyrsulfuron-methyl,,COC(=O)C1=CC=C(N=C1[S](=O)(=O)NC(=O)NC2=NC(=CC(=N2)OC)OC)C(F)(F)F,DTVOKYWXACGVGO-UHFFFAOYSA-N,-3.89
"3-(1-aziridinyl)-4,6-dinitro-(n-propyl)benzamide",,CCCNC(=O)C1=CC(=C(C=C1[N+]([O-])=O)[N+]([O-])=O)N2CC2,QTBORRHTRCJQKU-UHFFFAOYSA-N,-3.89
n-benzoyl-o-acetyl-l-tyrosinamide,,CC(=O)OC1=CC=C(CC(NC(=O)C2=CC=CC=C2)C(N)=O)C=C1,QJGVNUOLWAHMIO-UHFFFAOYSA-N,-3.89
"6-methyl-3-oxa-13-azatetracyclo[7.7.1.0^{2,7}.0^{13,17}]heptadeca-1(17),2(7),5,8-tetraen-4-one",,CC1=CC(=O)OC2=C3CCCN4CCCC(=C34)C=C12,XHXMPURWMSJENN-UHFFFAOYSA-N,-3.89
2-(5-nitrofuran-2-yl)-1H-benzimidazole,,C1=CC=C2C(=C1)NC(=N2)C3=CC=C(O3)[N+](=O)[O-],GOUDVMWLWAFVMC-UHFFFAOYSA-N,-3.89
,CHEMBL2322768,CN(C)CCn1ncnc1c2cc3CCOc4cc(ccc4c3s2)C(=O)N,KISFQROBPOGKFD-UHFFFAOYSA-N,-3.892417941
Regadenoson,313348-27-5,CNC(=O)c1cnn(-c2nc(N)c3ncn([C@@H]4O[C@H](CO)[C@@H](O)[C@H]4O)c3n2)c1,LZPZPHGJDAGEJZ-AKAIJSEGSA-N,-3.89
"propanoic acid, 4-nitrophenyl ester",,CCC(=O)Oc1ccc(cc1)[N+]([O-])=O,DCQWRDUXRZSWHI-UHFFFAOYSA-N,-3.8925
oxasulfuron,,Cc1cc(C)nc(NC(=O)N[S](=O)(=O)c2ccccc2C(=O)OC3COC3)n1,IOXAXYHXMLCCJJ-UHFFFAOYSA-N,-3.893
undec-10-enal,,C=CCCCCCCCCC=O,OFHHDSQXFXLTKC-UHFFFAOYSA-N,-3.8931862
2-hydroxynaphthalene-1-carbaldehyde,,Oc1ccc2ccccc2c1C=O,NTCCNERMXRIPTR-UHFFFAOYSA-N,-3.89356759
"N,N'-bis(3-phenylprop-2-en-1-ylidene)hexane-1,6-diamine",,C(CCCN=C\C=C\c1ccccc1)CCN=C/C=C/c2ccccc2,ATPFMBHTMKBVLS-NCDJPSHJSA-N,-3.893739071
octyl gallate,,CCCCCCCCOC(=O)c1cc(O)c(O)c(O)c1,NRPKURNSADTHLJ-UHFFFAOYSA-N,-3.8945
dibutyl sebacate,,CCCCOC(=O)CCCCCCCCC(=O)OCCCC,PYGXAGIECVVIOZ-UHFFFAOYSA-N,-3.8955
buturon,,CC(C#C)N(C)C(=O)Nc1ccc(Cl)cc1,BYYMILHAKOURNM-UHFFFAOYSA-N,-3.8971
tribenuron-methyl,,COC(=O)c1ccccc1[S](=O)(=O)NC(=O)N(C)c2nc(C)nc(OC)n2,VLCQZHSMCYCDJL-UHFFFAOYSA-N,-3.8981
Ketanserin,CAS74050-98-9,O=C(c1ccc(F)cc1)C1CCN(CCn2c(=O)[nH]c3ccccc3c2=O)CC1,FPCCSQOGAWCVBH-UHFFFAOYSA-N,-3.9
"2-(2-undecyl-4,5-dihydro-1H-imidazol-1-yl)ethanol",,CCCCCCCCCCCC1=NCCN1CCO,QNDGQRJVVZJMJO-UHFFFAOYSA-N,-3.898655621
xipamide,,CC1=C(NC(=O)C2=CC(=C(Cl)C=C2O)[S](N)(=O)=O)C(=CC=C1)C,MTZBBNMLMNBNJL-UHFFFAOYSA-N,-3.9
moricizine,,CCOC(=O)NC1=CC2=C(SC3=C(C=CC=C3)N2C(=O)CCN4CCOCC4)C=C1,FUBVWMNBEHXPSU-UHFFFAOYSA-N,-3.9
"1,3-bis(pivaloyloxymethyl)-5-fluorouracil",,CC(C)(C)C(=O)OCN1C=C(F)C(=O)N(COC(=O)C(C)(C)C)C1=O,WCEZGNZVJAKFRE-UHFFFAOYSA-N,-3.9
2-benzoyloxy-(n-cyclohexyl)acetamide;  n-cyclohexyl-2-benzoyloxyacetamide,,O=C(COC(=O)C1=CC=CC=C1)NC2CCCCC2,DQMPCJPRPFRUIT-UHFFFAOYSA-N,-3.9
"3-methyl-1-({3-[(3-methyl-2,5-dioxo-2,5-dihydro-1H-pyrrol-1-yl)methyl]phenyl}methyl)-2,5-dihydro-1H-pyrrole-2,5-dione",,CC1=CC(=O)N(Cc2cccc(CN3C(=O)C=C(C)C3=O)c2)C1=O,MIIBUHIQXLFJFP-UHFFFAOYSA-N,-3.900334993
"acetamide, 2-(benzoyloxy)-n-hexyl-",,CCCCCCNC(=O)COC(=O)c1ccccc1,ZTEWWPFYEDRRRL-UHFFFAOYSA-N,-3.902
"9-acridinol, 9,10-dihydro-10-methyl-9-phenyl-",,CN1c2ccccc2C(O)(c3ccccc3)c4ccccc14,MILNADFLMJQLHM-UHFFFAOYSA-N,-3.9031
"benzenamine, 4-methyl-2-[(4-methylphenyl)azo]-",,Cc1ccc(cc1)N=Nc2cc(C)ccc2N,BBVUAJTZGSWJDD-UHFFFAOYSA-N,-3.9031
"benzoic acid, 4-hydroxy-3-iodo-, butyl ester",,CCCCOC(=O)c1ccc(O)c(I)c1,LDGUZTFKHIQDJC-UHFFFAOYSA-N,-3.9033
"1,4-bis[(E)-prop-1-enoxy]cyclohexane 1,4-di(prop-1-enoxy)cyclohexane",,C\C=C\OC1CCC(CC1)O\C=C\C,TXHDDWGFTSDFEB-LQIBPGRFSA-N,-3.903732091
triazophos,,CCO[P](=S)(OCC)Oc1ncn(n1)c2ccccc2,AMFGTOFWMRQMEM-UHFFFAOYSA-N,-3.9049
"1-hydroxy-4-methyl-6-(2,4,4-trimethylpentyl)pyridin-2(1H)-one - 2-aminoethanol (1:1)",,CC(CC1=CC(=CC(=O)N1O)C)CC(C)(C)C.NCCO,BTSZTGGZJQFALU-UHFFFAOYSA-N,-3.905464204
2-oxo-N-{6-[(2-oxoazepane-1-carbonyl)amino]hexyl}azepane-1-carboxamide,,O=C1CCCCCN1C(=O)NCCCCCCNC(=O)N2CCCCCC2=O,YOVRNJUIHVNXCB-UHFFFAOYSA-N,-3.906400656
"N,N-dimethyldodecanamide",,CCCCCCCCCCCC(=O)N(C)C,BDYUSDIJIDGWCY-UHFFFAOYSA-N,-3.909307051
1-(4-methylphenylsulfonyl)cyclopentanecarboxylic acid isopropyl ester,,CC(C)OC(=O)C1(CCCC1)[S](=O)(=O)C2=CC=C(C)C=C2,ZJFXBQVTEYWQHW-UHFFFAOYSA-N,-3.91
"2,5-bis(pivaloyloxymethyl)allopurinol",,CC(C)(C)C(=O)OC[N]1C=C2C(=O)N(COC(=O)C(C)(C)C)C=NC2=N1,IOFJWHCIWURTCZ-UHFFFAOYSA-N,-3.91
7-(3-amino-2-ethylazetidin-1-yl)-1-cyclopropyl-6-fluoro-4-oxoquinoline-3-carboxylic acid,,CCC1C(N)CN1C1=CC2=C(C=C1F)C(=O)C(C(=O)O)=CN2C1CC1,BRPOVUNVTUCYNN-UHFFFAOYSA-N,-3.91
"1-octanesulfonamide, n-(octylsulfonyl)-",,CCCCCCCC[S](=O)(=O)N[S](=O)(=O)CCCCCCCC,GLIMMBJQTXCOMG-UHFFFAOYSA-N,-3.9145
Cefixime,CAS79350-37-1,C=CC1=C(C(=O)O)N2C(=O)[C@@H](NC(=O)/C(=N\OCC(=O)O)c3csc(N)n3)[C@H]2SC1,OKBVVJOGVLARMR-QSWIMTSFSA-N,-3.92
"1,10-phenanthroline, 5-nitro-",,[O-][N+](=O)c1cc2cccnc2c3ncccc13,PDDBTWXLNJNICS-UHFFFAOYSA-N,-3.9172
2-({[6-(oxiran-2-ylmethoxy)naphthalen-1-yl]oxy}methyl)oxirane,,C1OC1COc2ccc3c(OCC4CO4)cccc3c2,MEVBAGCIOOTPLF-UHFFFAOYSA-N,-3.919173798
(ethenesulfonyl)methanesulfonylethene,,C=C[S](=O)(=O)C[S](=O)(=O)C=C,IJHIIHORMWQZRQ-UHFFFAOYSA-N,-3.91989545
2-(phenyl-(phenylmethylsulfanylcarbothioyl)amino)acetic acid,,O=C(O)CN(C(=S)SCC1=CC=CC=C1)C1=CC=CC=C1,QJYFZGZQJOGQTO-UHFFFAOYSA-N,-3.92
"8-(4-hydroxybutyl)-4H-thieno[3,2-c][1]benzoxepin-10-one",,O=C1C2=C(C=CC(CCCCO)=C2)OCC2=C1SC=C2,IPHKVWAKDXKJRE-UHFFFAOYSA-N,-3.92
,CHEMBL2414330,COc1ccn2cc(nc2c1C(=O)N)c3cccc(c3)c4cncc(OC[C@H]5CCCO5)c4,PXOBQIMVIKUJED-LJQANCHMSA-N,-3.92052529
,CHEMBL2164391,FC(F)(F)Cc1ccc(CNC(=O)C2N(CCc3ccccn3)C(=O)c4ccccc24)cc1,HPSXNGYRKXICLD-UHFFFAOYSA-N,-3.920537483
1-cyclohexylethyl butanoate,,CCCC(=O)OC(C)C1CCCCC1,FTMSYMOBBRINAR-UHFFFAOYSA-N,-3.920758898
reserpine,,CO[C@H]1[C@@H](C[C@@H]2CN3CCc4c([nH]c5cc(OC)ccc45)[C@H]3C[C@@H]2[C@@H]1C(=O)OC)OC(=O)c6cc(OC)c(OC)c(OC)c6,QEVHRUUCFGRFIF-MDEJGZGSSA-N,-3.9208
methiocarb,,CNC(=O)Oc1cc(C)c(SC)c(C)c1,YFBPRJGDJKVWAH-UHFFFAOYSA-N,-3.9214
Roxithromycin,CAS80214-83-1,CC[C@H]1OC(=O)[C@H](C)[C@@H](O[C@H]2C[C@@](C)(OC)[C@@H](O)[C@H](C)O2)[C@H](C)[C@@H](O[C@@H]2O[C@H](C)C[C@H](N(C)C)[C@H]2O)[C@](C)(O)C[C@@H](C)/C(=N/OCOCCOC)[C@H](C)[C@@H](O)[C@]1(C)O,RXZBMPWDPOLZGW-HEWSMUCTSA-N,-3.92
tributyl[(tributylstannyl)oxy]stannane,,CCCC[Sn](CCCC)(CCCC)O[Sn](CCCC)(CCCC)CCCC,APQHKWPGGHMYKJ-UHFFFAOYSA-N,-3.922851514
chlorbromuron,,CON(C)C(=O)Nc1ccc(Br)c(Cl)c1,NLYNUTMZTCLNOO-UHFFFAOYSA-N,-3.9236
"zinc bis[2-hydroxy-3,5-bis(1-phenylethyl)benzoate]",,[Zn++].CC(c1ccccc1)c2cc(C(C)c3ccccc3)c(O)c(c2)C([O-])=O.CC(c4ccccc4)c5cc(C(C)c6ccccc6)c(O)c(c5)C([O-])=O,XTUPUYCJWKHGSW-UHFFFAOYSA-L,-3.924409095
fenothiocarb,,CN(C)C(=O)SCCCCOc1ccccc1,HMIBKHHNXANVHR-UHFFFAOYSA-N,-3.9266
RTI 11,,O2c1ccc(N)cc1N(C)C(=O)c3cc(C)ccc23 ,COGWTYZJZRNZQG-UHFFFAOYSA-N,-3.928
n-(4-nitrophenyl)benzenesulfonamide,,[O-][N+](=O)C1=CC=C(N[S](=O)(=O)C2=CC=CC=C2)C=C1,SWSJPCDGJYPPCS-UHFFFAOYSA-N,-3.93
naproxen carbamoylmethyl ester;  naproxen  ester va,,COC1=CC=C2C=C(C=CC2=C1)C(C)C(=O)OCC(N)=O,COCAVGOWOPNYOD-UHFFFAOYSA-N,-3.93
endo-bornyl  acetate;  endo-borneol acetate,,CC(=O)OC1CC2CCC1(C)C2(C)C,KGEKLUUHTZCSIP-UHFFFAOYSA-N,-3.93
2-[(2-nitrophenyl)hydrazono]malononitrile,,[O-][N+](=O)C1=C(NN=C(C#N)C#N)C=CC=C1,NKWOBFAONPVDDE-UHFFFAOYSA-N,-3.93
"5,5-diethyl-1-(hydroxymethyl)-1,3-diazinane-2,4,6-trione",,CCC1(CC)C(=O)NC(=O)N(CO)C1=O,BKEFNWSKNHGAMA-UHFFFAOYSA-N,-3.93
1-Isopropyl-2-methoxy-4-methylcyclohexane,,COC1CC(C)CCC1C(C)C,JDGJLPHFRJNJMN-UHFFFAOYSA-N,-3.930174451
norbormide,,OC(C1=CC2C5C(C1C2=C(c3ccccc3)c4ccccn4)C(=O)NC5=O)(c6ccccc6)c7ccccn7 ,DNTHHIVFNQZZRD-UHFFFAOYSA-N,-3.931
"phthalide, 4-bromo-6,7-dimethoxy-",,COc1cc(Br)c2COC(=O)c2c1OC,OVTBMKVBBHTERH-UHFFFAOYSA-N,-3.9311
1-methyl-1-(4-methylcyclohex-3-en-1-yl)ethyl acetate,,CC(=O)OC(C)(C)C1CCC(=CC1)C,IGODOXYLBBXFDW-UHFFFAOYSA-N,-3.931170339
tebuconazole,,CC(C)(C)C(O)(CCc1ccc(Cl)cc1)Cn2cncn2,PXMNMQRDXWABCY-UHFFFAOYSA-N,-3.932
[2-(3-methylbutoxy)ethyl]benzene,,CC(C)CCOCCc1ccccc1,BHQBQWOZHYUVTL-UHFFFAOYSA-N,-3.933735783