Name,ID,SMILES,inchi,LogS
Aliskiren,CAS173334-57-1,COCCCOc1cc(C[C@@H](C[C@H](N)[C@@H](O)C[C@H](C(=O)NCC(C)(C)C(N)=O)C(C)C)C(C)C)ccc1OC,UXOWGYHJODZGMF-QORCZRPOSA-N,-0.2
bis(3-aminopropyl)(dodecyl)amine,,CCCCCCCCCCCCN(CCCN)CCCN,NYNKJVPRTLBJNQ-UHFFFAOYSA-N,-0.197711374
metrizamide,,CN(C(C)=O)c1c(I)c(NC(C)=O)c(I)c(C(=O)NC2[C@@H](O)OC(CO)[C@@H](O)C2O)c1I,BAQCROVBDNBEEB-OPRFMTNSSA-N,-0.1982
"methanediamine, n,n,n',n'-tetraethyl-",,CCN(CC)CN(CC)CC,UNEXJVCWJSHFNN-UHFFFAOYSA-N,-0.1995
"2-[(allyloxy)methyl]-2-methylbutane-1,1-diol",,CCC(CO)(CO)COCC=C,LZDXRPVSAKWYDH-UHFFFAOYSA-N,-0.199755177
"oxolane-2,5-dione",,O=C1CCC(=O)O1,RINCXYDBBGOEEQ-UHFFFAOYSA-N,-0.201666274
ammonium 4-(acetoacetylamino)-5-methoxy-2-methylbenzenesulfonate,,[NH4+].COc1cc(c(C)cc1NC(=O)CC(C)=O)[S]([O-])(=O)=O,ZPDRZMNAFLBUOA-UHFFFAOYSA-N,-0.201876223
2-pentenoic acid,,CC\C=C/C(O)=O,YIYBQIKDCADOSF-ARJAWSKDSA-N,-0.2019
"1,2-propylene glycol diacetate",,CC(COC(C)=O)OC(C)=O,MLHOXUWWKVQEJB-UHFFFAOYSA-N,-0.2046
"1,3-propanediol, diacetate",,CC(=O)OCCCOC(C)=O,DSVGICPKBRQDDX-UHFFFAOYSA-N,-0.2046
daminozide,,CN(C)NC(=O)CCC(O)=O,NOQGZXFMHARMLW-UHFFFAOYSA-N,-0.2046
"2-propanone, 1,1-diethoxy-",,CCOC(OCC)C(C)=O,SDMOBEHDSJVJHU-UHFFFAOYSA-N,-0.2059
4-dimethylaminopyridine,,CN(C)c1cc[nH+]cc1,VHYFNPMBLIVWCW-UHFFFAOYSA-O,-0.2062
Fesoterodine,CAS250214-44-9,CC(C)C(=O)Oc1ccc(CO)cc1[C@H](CCN(C(C)C)C(C)C)c1ccccc1,DCCSDBARQIPTGU-HSZRJFAPSA-N,-0.21
"benzenemethanol, 5-bromo-2-hydroxy-",,OCc1cc(Br)ccc1O,KNKRHSVKIORZQB-UHFFFAOYSA-N,-0.2072
"2-methylbenzene-1,4-diol",,Cc1cc(O)ccc1O,CNHDIAIOKMXOLK-UHFFFAOYSA-N,-0.207417517
"urea, 1-ethyl-1-o-tolyl-",,CCN(C(N)=O)c1ccccc1C,DVVVPMHPSRJZQX-UHFFFAOYSA-N,-0.2096
Daptomycin,CAS103060-53-3,CCCCCCCCCC(=O)N[C@@H](Cc1c[nH]c2ccccc12)C(=O)N[C@@H](CC(N)=O)C(=O)N[C@@H](CC(=O)O)C(=O)N[C@@H]1C(=O)NCC(=O)N[C@@H](CCCN)C(=O)N[C@@H](CC(=O)O)C(=O)N[C@H](C)C(=O)N[C@@H](CC(=O)O)C(=O)NCC(=O)N[C@H](CO)C(=O)N[C@@H]([C@H](C)CC(=O)O)C(=O)N[C@@H](CC(=O)c2ccccc2N)C(=O)O[C@@H]1C,DOAKLVKFURWEDJ-RWDRXURGSA-N,-0.21
sec-butyl ethylamine,,CCNC(C)CC,KFYKZKISJBGVMR-UHFFFAOYSA-N,-0.21
4-fluorophenol,,OC1=CC=C(F)C=C1,RHMPLDJJXGPMEX-UHFFFAOYSA-N,-0.21
"2-propenamide, 2-chloro-",,NC(=O)C(Cl)=C,YBXYCBGDIALKAK-UHFFFAOYSA-N,-0.2104
"2-butanol, 3-chloro-",,CC(O)C(C)Cl,XKEHIUIIEXXHJX-UHFFFAOYSA-N,-0.2122
"2-bornanone, 3-(hydroxymethyl)-",,CC1(C)C2CCC1(C)C(=O)C2CO,YWQRRMNZXWQQJU-UHFFFAOYSA-N,-0.215
bromosuccinic acid,,OC(=O)CC(Br)C(O)=O,QQWGVQWAEANRTK-UHFFFAOYSA-N,-0.215
Cidofovir,CAS113852-37-2,Nc1ccn(C[C@@H](CO)OCP(=O)(O)O)c(=O)n1,VWFCHDSQECPREK-LURJTMIESA-N,-0.22
"thiocyanic acid, 2-oxopropyl ester",,CC(=O)CSC#N,HBEQAYDPEJTYND-UHFFFAOYSA-N,-0.2162
"1,1-dimethylpropyl hydroperoxide",,CCC(C)(C)OO,XRXANEMIFVRKLN-UHFFFAOYSA-N,-0.216594575
"1-N,1-N-bis(2-hydroxyethyl)benzene-1,4-bis(aminium) sulfate",,Nc1ccc(cc1)N(CCO)CCO.O[S](O)(=O)=O,KMCFMEHSEWDYKG-UHFFFAOYSA-N,-0.218413053
tabun,,CCO[P](=O)(C#N)N(C)C,PJVJTCIRVMBVIA-UHFFFAOYSA-N,-0.2186
methyl_acrylate,,O=C(OC)C=C,BAPJBEWLBFYGME-UHFFFAOYSA-N,-0.22
Nitroethane,,CCN(=O)=O,MCSAJNNLRCFZED-UHFFFAOYSA-N,-0.22
disodium oxybis[methylbenzenesulphonate],,[Na+].[Na+].Cc1cc(Oc2cc(C)cc(c2)[S]([O-])(=O)=O)cc(c1)[S]([O-])(=O)=O,UGVJAWDVDTXCQA-UHFFFAOYSA-L,-0.220796195
2(3h)-thiophenone,,O=C1CC=CS1,NKAMYGXYCWMPTC-UHFFFAOYSA-N,-0.2225
"benzaldehyde, 2-amino-4-hydroxy-3-methoxy-",,COc1c(N)c(C=O)ccc1O,PNKIOGYYVJRTML-UHFFFAOYSA-N,-0.2232
2-methylidenebutanedioic acid,,OC(=O)CC(=C)C(O)=O,LVHBHZANLOWSRM-UHFFFAOYSA-N,-0.225028298
Hydroxychloroquine Sulfate,CAS747-36-4,CCN(CCO)CCCC(C)Nc1ccnc2cc(Cl)ccc12.O=S(=O)(O)O,JCBIVZZPXRZKTI-UHFFFAOYSA-N,-0.23
"2-[(E)-2-{4-[ethyl(2-hydroxyethyl)amino]phenyl}diazen-1-yl]-6-methoxy-3-methyl-1,3-benzothiazol-3-ium acetate",,CCN(CCO)c1ccc(cc1)N=Nc2sc3cc(OC)ccc3[n+]2C.CC([O-])=O,BLZWSNCCDXVOPZ-UHFFFAOYSA-M,-0.226272691
"l-glutamic acid, n,n-bis(2-cyanoethyl)-",,OC(=O)CCC(N(CCC#N)CCC#N)C(O)=O,JQXSGQACFFFOIU-UHFFFAOYSA-N,-0.2275
"1,2-cyclohexanediol, 1-methyl-4-(1-methylethenyl",,CC(=C)C1CCC(C)(O)C(O)C1,WKZWTZTZWGWEGE-UHFFFAOYSA-N,-0.2311
ethyl (2S)-5-carbamimidamido-2-dodecanamidopentanoate hydrochloride,,Cl.CCCCCCCCCCCC(=O)N[C@@H](CCCNC(N)=N)C(=O)OCC,CUBZMGWLVMQKNE-LMOVPXPDSA-N,-0.231611963
"1h-1,2,3-triazolo[4,5-d]pyrimidine",,[nH]1nc2cncnc2n1,GIIGHSIIKVOWKZ-UHFFFAOYSA-N,-0.2319
hexanedihydrazide,,NNC(=O)CCCCC(=O)NN,IBVAQQYNSHJXBV-UHFFFAOYSA-N,-0.232457951
"1,3-benzenedimethanol",,OCc1cccc(CO)c1,YWMLORGQOFONNT-UHFFFAOYSA-N,-0.2328
4-oxo-pent-2-enoic acid,,CC(=O)C=CC(O)=O,XGTKSWVCNVUVHG-UHFFFAOYSA-N,-0.2332
3-pentanol,,CCC(O)CC,AQIXEPGDORPWBJ-UHFFFAOYSA-N,-0.2334
"4-(2-hydroxyethoxy)benzene-1,3-diaminium sulfate",,Nc1ccc(OCCO)c(N)c1,WCPGNFONICRLCL-UHFFFAOYSA-N,-0.233704176
2-hydroxypropanoic acid - 5-{[(2-ethylhexyl)carbamoyl]oxy}-2-methylphenyl [2-(dimethylamino)ethyl]carbamate (1:1) (non-preferred name),,CCCCC(CC)COC(=O)Nc1ccc(C)c(NC(=O)OCCN(C)C)c1.CC(O)C(O)=O,HYNJGJWCXRMUIG-UHFFFAOYSA-N,-0.235193825
Ribavirin,CAS36791-04-5,NC(=O)c1ncn([C@@H]2O[C@H](CO)[C@@H](O)[C@H]2O)n1,IWUCXVSUMQZMFG-AFCXAGJDSA-N,-0.24
"propanoic acid, 2,3-dimercapto-",,OC(=O)C(S)CS,AIVVKKOTAISCNQ-UHFFFAOYSA-N,-0.2374
"p-[4,5-dihydro-4-[[2-methoxy-5-methyl-4-[[2-(sulphooxy)ethyl]sulphonyl]phenyl]azo]-3-methyl-5-oxo-1H-pyrazol-1-yl]benzenesulphonic acid, sodium salt",,[Na+].[Na+].COc1cc(c(C)cc1N=NC2C(=NN(C2=O)c3ccc(cc3)[S]([O-])(=O)=O)C)[S](=O)(=O)CCO[S]([O-])(=O)=O,VMRASBDRVJTOLR-UHFFFAOYSA-L,-0.239003926
3-Mentanol  ,,CC1CCCC(O)(C(C)C)C1,FLDULGZAEKFCIK-UHFFFAOYSA-N,-0.24
"trisodium 8-hydroxypyrene-1,3,6-trisulfonate",,[Na+].[Na+].[Na+].Oc1cc(c2ccc3c4c(ccc1c24)c(cc3[S]([O-])(=O)=O)[S]([O-])(=O)=O)[S]([O-])(=O)=O,KXXXUIKPSVVSAW-UHFFFAOYSA-K,-0.242535631
cdea,,CCN(CC)C(=O)CCl,CQQUWTMMFMJEFE-UHFFFAOYSA-N,-0.243
"glycine, n-(ethoxycarbonyl)-, ethyl ester",,CCOC(=O)CNC(=O)OCC,ORKAHUKYJCNDDI-UHFFFAOYSA-N,-0.2435
3-pentanone,,CCC(=O)CC,FDPIMTJIUBPUKL-UHFFFAOYSA-N,-0.253
"2,2,2-trichloroethanol",,OCC(Cl)(Cl)Cl,KPWDGTGXUYRARH-UHFFFAOYSA-N,-0.2537
pentan-2-ol,,CCCC(C)O,JYVLIDXNZAXMDK-UHFFFAOYSA-N,-0.254140825
"tetrasodium 4-amino-5-hydroxy-3,6-bis[(E)-2-{4-[2-(sulfonatooxy)ethanesulfonyl]phenyl}diazen-1-yl]naphthalene-2,7-disulfonate",,[Na+].[Na+].[Na+].[Na+].Nc1c(N=Nc2ccc(cc2)[S](=O)(=O)CCO[S]([O-])(=O)=O)c(cc3C=C(/C(=N/Nc4ccc(cc4)[S](=O)(=O)CCO[S]([O-])(=O)=O)C(=O)c13)[S]([O-])(=O)=O)[S]([O-])(=O)=O,FWKNDLPEBIXZRV-FXJKTVKKSA-J,-0.255286517
"acetamide, 2,2-dichloro-",,NC(=O)C(Cl)Cl,WCGGWVOVFQNRRS-UHFFFAOYSA-N,-0.2558
"ethane, 2-chloro-1,1,1-trinitro-",,[O-][N+](=O)C(CCl)([N+]([O-])=O)[N+]([O-])=O,BDQJEJZWJJUQGU-UHFFFAOYSA-N,-0.2586
"2,7-naphthalenedisulfonic acid, 1-amino-",,Nc1ccc(c2cc(ccc12)[S](O)(=O)=O)[S](O)(=O)=O,JSBQMQFABBMNSV-UHFFFAOYSA-N,-0.2592
"propanoic acid, 2-(acetyloxy)-, methyl ester",,COC(=O)C(C)OC(C)=O,QTFFGYLLUHQSAS-UHFFFAOYSA-N,-0.2617
methyl cyanoacetate,,COC(=O)CC#N,ANGDWNBGPBMQHW-UHFFFAOYSA-N,-0.263631686
verbenalin,,COC(=O)C1=CO[C@@H](O[C@@H]2O[C@H](CO)[C@@H](O)[C@H](O)[C@H]2O)[C@@H]3[C@@H](C)CC(=O)[C@H]13,HLXRWTJXGMHOFN-XJSNKYLASA-N,-0.265
"trisodium 5-({4-chloro-6-[ethyl(phenyl)amino]-1,3,5-triazin-2-yl}amino)-4-hydroxy-3-[(E)-2-(2-sulfonatophenyl)diazen-1-yl]naphthalene-2,7-disulfonate",,[Na+].[Na+].[Na+].CCN(c1ccccc1)c2nc(Cl)nc(Nc3cc(cc4C=C(\C(=N/Nc5ccccc5[S]([O-])(=O)=O)C(=O)c34)[S]([O-])(=O)=O)[S]([O-])(=O)=O)n2,LTDWIWZCTPXWKI-BGSWCMMMSA-K,-0.266745284
"1,4-dimethyl (2Z)-but-2-enedioate",,COC(=O)\C=C/C(=O)OC,LDCRTTXIJACKKU-ARJAWSKDSA-N,-0.267204876
"acetone, semicarbazone",,CC(C)=NNC(N)=O,HQDAJGNZGNZGCO-UHFFFAOYSA-N,-0.2674
m-hydroxybenzyl alcohol,,OCc1cccc(O)c1,OKVJCVWFVRATSG-UHFFFAOYSA-N,-0.2678
"endothall; 7-oxabicyclo[2.2.1]heptan-2,3-dicarboxylic  acid",,OC(=O)C1C2CCC(O2)C1C(O)=O,GXEKYRXVRROBEV-UHFFFAOYSA-N,-0.27
Valacyclovir,CAS124832-26-4,CC(C)[C@H](N)C(=O)OCCOCn1cnc2c(=O)[nH]c(N)nc21,HDOVUKNUBWVHOX-QMMMGPOBSA-N,-0.27
aluminium(3+) ion triformate,,[Al+3].[O-]C=O.[O-]C=O.[O-]C=O,MJWPFSQVORELDX-UHFFFAOYSA-K,-0.274600321
fluoroethene,,FC=C,XUCNUKMRBVNAPB-UHFFFAOYSA-N,-0.276
"2,2,4-trimethylhexanedioic acid; 2,4,4-trimethylhexanedioic acid",,CC(CC(O)=O)CC(C)(C)C(O)=O,DWFUTNJGNBYHNN-UHFFFAOYSA-N,-0.279037497
3-(2-dimethylamino-2-iminoethyl)sulfanyl-6-(1-hydroxyethyl)-4-methyl-7-oxo-1-azabicyclo[3.2.0]hept-2-ene-2-carboxylic acid,,CC(O)C1C(=O)N2C(C(=O)O)=C(SCC(=N)N(C)C)C(C)C12,VBVXPLDOYIOZGP-UHFFFAOYSA-N,-0.28
"methane, chloronitro-",,[O-][N+](=O)CCl,CGKPGVZMSKVVOF-UHFFFAOYSA-N,-0.281
2-phenylethan-1-amine,,NCCc1ccccc1,BHHGXPLMPWCGHP-UHFFFAOYSA-N,-0.28238117
"ethane, 1,1-difluoro-2-methoxy-",,COCC(F)F,CRGZRXUKXVTRNO-UHFFFAOYSA-N,-0.2836
"disodium 7-({bis[(2-hydroxyethyl)amino]-1,3,5-triazin-2-yl}amino)-4-hydroxy-3-[(E)-2-{4-[(E)-2-(4-sulfonatophenyl)diazen-1-yl]phenyl}diazen-1-yl]naphthalene-2-sulfonate",,[Na+].[Na+].OCCNc1nc(NCCO)nc(Nc2ccc3C(=O)C(=N/Nc4ccc(cc4)N=Nc5ccc(cc5)[S]([O-])(=O)=O)\C(=Cc3c2)[S]([O-])(=O)=O)n1,GCRNVICBLHQKTF-FOZHKXGMSA-L,-0.28369802
sodium dodecyl sulfate,,[Na+].CCCCCCCCCCCCO[S]([O-])(=O)=O,DBMJMQXJHONAFJ-UHFFFAOYSA-M,-0.283881408
Tigecycline,CAS220620-09-7,CN(C)c1cc(NC(=O)CNC(C)(C)C)c(O)c2c1C[C@H]1C[C@H]3[C@H](N(C)C)C(O)=C(C(N)=O)C(=O)[C@@]3(O)C(O)=C1C2=O,FPZLLRFZJZRHSY-HJYUBDRYSA-N,-0.29
"(1S,2S)-1-methyl-4-(propan-2-yl)-7-oxabicyclo[2.2.1]heptan-2-ol",,CC(C)[C@@]12CC[C@@](C)(O1)[C@@H](O)C2,IFQZADDJTDGGCP-AEJSXWLSSA-N,-0.288092629
"dipotassium disodium 2,4-diamino-5-(2-{2-sulfonato-4-[2-(sulfonatooxy)ethanesulfonyl]phenyl}diazen-1-yl)-3-(2-{4-[2-(sulfonatooxy)ethanesulfonyl]phenyl}diazen-1-yl)benzene-1-sulfonate",,[Na+].[Na+].[K+].[K+].Nc1c(cc(c(N)c1N=Nc2ccc(cc2)[S](=O)(=O)CCO[S]([O-])(=O)=O)[S]([O-])(=O)=O)N=Nc3ccc(cc3[S]([O-])(=O)=O)[S](=O)(=O)CCO[S]([O-])(=O)=O,WHNCPPZRBQNNEY-UHFFFAOYSA-J,-0.289144621
ammonium hydrogen carbonate,,[NH4+].[NH4+].[Zn++].[Zn++].[O-]C([O-])=O.[O-]C([O-])=O.[O-]C([O-])=O,QOPSSYZLVIENBR-UHFFFAOYSA-J,-0.289761762
3-chloropropionitrile,,N#CCCCl,GNHMRTZZNHZDDM-UHFFFAOYSA-N,-0.29
l-Camphoronic_Acid,,OC(=O)CC(C)(C(=O)O)C(C)(C)C(=O)O,MJCJFUJXVGIUOD-UHFFFAOYSA-N,-0.29
4-hydroxy-2-methylbenzenesulfonic acid,,CC1=C(S(=O)(=O)O)C=CC(O)=C1,PYPXOMYXFFYJIF-UHFFFAOYSA-N,-0.29
2-Mentanol  ,,CC(C)C1C(C)CCCC1O,INRYEFODKKMLFS-UHFFFAOYSA-N,-0.29
Ropinirole,CAS91374-21-9,[2H]C([2H])([2H])C([2H])([2H])C([2H])([2H])N(CCC)CCc1cccc2c1CC(=O)N2,UHSKFQJFRQCDBE-MADFRBAASA-N,-0.29
"carbamic acid, diethyl-, methyl ester",,CCN(CC)C(=O)OC,VAGMFMWZIMXAGK-UHFFFAOYSA-N,-0.2918
cerium(+3) cation; hydrogen sulfate; sulfate; tetrahydrate,,O.O.O.O.[Ce+3].O[S]([O-])(=O)=O.[O-][S]([O-])(=O)=O,ZBNJQJDKRZKDSV-UHFFFAOYSA-K,-0.291816974
methyl oxalate,,COC(=O)C(=O)OC,LOMVENUNSWAXEN-UHFFFAOYSA-N,-0.2919
"2-butanol, 3-chloro-2-methyl-",,CC(Cl)C(C)(C)O,YYHQXKBKFKTDMP-UHFFFAOYSA-N,-0.2926
"2(3h)-furanone, 5-methyl-",,CC1=CCC(=O)O1,QOTQFLOTGBBMEX-UHFFFAOYSA-N,-0.293
"thiourea, 2-propenyl-",,NC(=S)NCC=C,HTKFORQRBXIQHD-UHFFFAOYSA-N,-0.294
o-hydroxybenzyl alcohol,,OCc1ccccc1O,CQRYARSYNCAZFO-UHFFFAOYSA-N,-0.2946
"3-p-anisidino-propane-1,2-diol",,COc1ccc(NCC(O)CO)cc1,AZKRMADMLBGMOJ-UHFFFAOYSA-N,-0.295
oxolan-2-ylmethyl prop-2-enoate,,C=CC(=O)OCC1CCCO1,YNXCGLKMOXLBOD-UHFFFAOYSA-N,-0.295451716
Sotalol,CAS3930-20-9,CC(C)NCC(O)c1ccc(NS(C)(=O)=O)cc1,ZBMZVLHSJCTVON-UHFFFAOYSA-N,-0.3
isobutyl  carbamate,,CC(C)COC(N)=O,BRUZQRBVNRKLJG-UHFFFAOYSA-N,-0.3
imidazole-2-sulfonic acid,,O[S](=O)(=O)C1=NC=C[NH]1,LYLDIIUFTYRPPK-UHFFFAOYSA-N,-0.3
"5,8-dihydroxy-1-methyl-3,4,4a,5,6,7,8,8a-octahydro-1H-naphthalen-2-one",,CC1C(=O)CCC2C(O)CCC(O)C12,KRJWIJLMVAUQTI-UHFFFAOYSA-N,-0.3
"(7,7-dimethyl-2-oxo-1-bicyclo[2.2.1]heptanyl)methanesulfonic acid",,CC1(C)C2CCC1(CS(=O)(=O)O)C(=O)C2,MIOPJNTWMNEORI-UHFFFAOYSA-N,-0.3
"2-[2-(2-aminopurin-9-yl)ethyl]propane-1,3-diol",,NC1=NC2=C(C=N1)N=CN2CCC(CO)CO,WJOWACPJSFGNRM-UHFFFAOYSA-N,-0.3
"pyrazinamide, n-2-pyrimidinyl-",,O=C(Nc1ncccn1)c2cnccn2,UKSKIENIGGVZIP-UHFFFAOYSA-N,-0.3036
"1-(chloromethyl)-4-fluoro-1,4-diazabicyclo[2.2.2]octane-1,4-diium; bis(tetrafluoroboranuide)",,F[B-](F)(F)F.F[B-](F)(F)F.F[N+]12CC[N+](CCl)(CC1)CC2,TXRPHPUGYLSHCX-UHFFFAOYSA-N,-0.303811902
potassium dicyanogolduide,,[K+].[Au+].[C-]#N.[C-]#N,XTFKWYDMKGAZKK-UHFFFAOYSA-N,-0.304208728
"Nonylphenol, ethoxylated",,CCCCCCCCCc1ccc(OCCOCCO)cc1,BLXVTZPGEOGTGG-UHFFFAOYSA-N,-0.304510239
"benzenepropanoic acid, .alpha.,.beta.-dihydroxy-",,OC(C(O)c1ccccc1)C(O)=O,BNOUUNAFHCJIJD-UHFFFAOYSA-N,-0.3063
potassium trihydrogen diethanedioate,,[K].OC(=O)C(O)=O.OC(=O)C(O)=O,INYYFFJLLWWJOT-UHFFFAOYSA-N,-0.307349426
2-cyanoguanidine,,NC(N)=NC#N,QGBSISYHAICWAH-UHFFFAOYSA-N,-0.3087
3-[1-hydroxy-2-(methylamino)ethyl]phenol hydrochloride,,Cl.CNCC(O)c1cccc(O)c1,OCYSGIYOVXAGKQ-UHFFFAOYSA-N,-0.308924931
tetrasodium tris(peroxol) dicarbonate,,[Na+].[Na+].[Na+].[Na+].OO.OO.OO.[O-]C([O-])=O.[O-]C([O-])=O,MSLRPWGRFCKNIZ-UHFFFAOYSA-J,-0.309433822
hexapotassium dihydrogen borate hydrogen borate borate,,[K].OB(O)O,AENYAMPVQFAKHY-UHFFFAOYSA-N,-0.312059473
"1,3-diacetylurea",,CC(=O)NC(=O)NC(C)=O,UJQLDFMZDSDZEY-UHFFFAOYSA-N,-0.3137
"3,4-dimethylpyridine",,Cc1ccncc1C,NURQLCJSMXZBPC-UHFFFAOYSA-N,-0.314
"benzenemethanol, 2-hydroxy-5-methyl-",,Cc1ccc(O)c(CO)c1,ZUVDVLYXIZFDRM-UHFFFAOYSA-N,-0.3143
methanethiol,,CS,LSDPWZHWYPCBBB-UHFFFAOYSA-N,-0.314879436
2-methylpentanedinitrile,,CC(CCC#N)C#N,FPPLREPCQJZDAQ-UHFFFAOYSA-N,-0.31550074
"1,3,6-naphthalenetrisulfonic acid, 4-amino-",,Nc1c2cc(ccc2c(cc1[S](O)(=O)=O)[S](O)(=O)=O)[S](O)(=O)=O,SWHYBBGFRAEKOS-UHFFFAOYSA-N,-0.3188
"l-asparagine, n2-(chloroacetyl)-",,NC(=O)C[C@H](NC(=O)CCl)C(O)=O,MTOREWCHUWIPOO-VKHMYHEASA-N,-0.3193
oxprenolol,,CC(C)NCC(O)COC1=C(OCC=C)C=CC=C1,CEMAWMOMDPGJMB-UHFFFAOYSA-N,-0.32
n-butanoyl-n'-isonicotinoylhydrazine,,CCCC(=O)NNC(=O)C1=CC=NC=C1,CHJCAPPVUWJTCJ-UHFFFAOYSA-N,-0.32
"butanedioic acid, 2,2-dimethyl-",,CC(C)(CC(O)=O)C(O)=O,GOHPTLYPQCTZSE-UHFFFAOYSA-N,-0.32
butyronitrile,,CCCC#N,KVNRLNFWIYMESJ-UHFFFAOYSA-N,-0.321
N-methylcyclohexanamine,,CNC1CCCCC1,XTUVJUMINZSXGF-UHFFFAOYSA-N,-0.321468013
"dl-methionine, n-acetyl-",,CSCC[C@@H](NC(C)=O)C([O-])=O,XUYPXLNMDZIRQH-ZCFIWIBFSA-M,-0.3216
allaric acid,,O[C@H]([C@H](O)[C@H](O)C(O)=O)[C@@H](O)C(O)=O,DSLZVSRJTYRBFB-GNSDDBTRSA-N,-0.3225
"trisodium 4-[(E)-2-{4-[(4-nitro-2-sulfophenyl)amino]phenyl}diazen-1-yl]-6-[(E)-2-{4-[(E)-2-{4-[(4-nitro-2-sulfophenyl)amino]phenyl}diazen-1-yl]-5-sulfonatonaphthalen-1-yl}diazen-1-yl]benzene-1,3-bis(olate)",,[Na+].[Na+].[Na+].OC1=CC(=O)\C(C=C1N=Nc2ccc(N=Nc3ccc(Nc4ccc(cc4[S]([O-])(=O)=O)[N+]([O-])=O)cc3)c5c2cccc5[S]([O-])(=O)=O)=N/Nc6ccc(Nc7ccc(cc7[S]([O-])(=O)=O)[N+]([O-])=O)cc6,KYKONKUSIIGFJP-QJRWVWFOSA-K,-0.322577337
d-glycero-d-gulo-heptose,,OCC(O)C(O)C(O)C(O)C(O)C=O,YPZMPEPLWKRVLD-UHFFFAOYSA-N,-0.3226
2-methoxy-2-methylpropane,,COC(C)(C)C,BZLVMXJERCGZMT-UHFFFAOYSA-N,-0.323526854
"4-methyl-1,3-oxazole-5-carbonitrile",,Cc1ncoc1C#N,JZSLPQXOLZCAME-UHFFFAOYSA-N,-0.324555733
Cefuroxime,CAS55268-75-2,CO/N=C(\C(=O)N[C@@H]1C(=O)N2C(C(=O)O)=C(COC(N)=O)CS[C@H]12)c1ccco1,JFPVXVDWJQMJEE-IZRZKJBUSA-N,-0.33
ethyl 2-cyanoacetate,,CCOC(=O)CC#N,ZIUSEGSNTOUIPT-UHFFFAOYSA-N,-0.327612407
"3-hydroxy-2,2-dimethylpropanal",,CC(C)(CO)C=O,JJMOMMLADQPZNY-UHFFFAOYSA-N,-0.3279
3-methylbutanoic acid,,CC(C)CC(O)=O,GWYFCOCPABKNJV-UHFFFAOYSA-N,-0.327924852
N-Methylsulfonylcyclohexanesulfonamide,,CS(=O)(=O)NS(=O)(=O)C1CCCCC1,CWLZDZVLPBXMKF-UHFFFAOYSA-N,-0.33
trichlorfon,,CO[P](=O)(OC)C(O)C(Cl)(Cl)Cl,NFACJZMKEDPNKN-UHFFFAOYSA-N,-0.3315
1-hydroxy-cyclohexanecarboxylic acid,,OC(=O)C1(O)CCCCC1,BPOVRAAUERBWFK-UHFFFAOYSA-N,-0.3328
Cefodizime,CAS69739-16-8,CO/N=C(\C(=O)N[C@@H]1C(=O)N2C(C(=O)O)=C(CSc3nc(C)c(CC(=O)O)s3)CS[C@H]12)c1csc(N)n1,XDZKBRJLTGRPSS-BGZQYGJUSA-N,-0.34
chromium(3+) ion trifluoride,,[F].[F].[F].[Cr],QZEZRQVFRMLNPK-UHFFFAOYSA-N,-0.338416648
"2,2-bis(hydroxymethyl)propane-1,3-diol",,OCC(CO)(CO)CO,WXZMFSXDPGVJKK-UHFFFAOYSA-N,-0.341616387
dipotassium 2-dodecanamidoacetate 2-tetradecanamidoacetate,,[K+].[K+].CCCCCCCCCCCCCC(=O)NCC([O-])=O.CCCCCCCCCCCC(=O)NCC([O-])=O,AFUMULMCCJZCMZ-UHFFFAOYSA-L,-0.3429717
"2-propanol, 1,3-dipropoxy-",,CCCOCC(O)COCCC,KLDDZFJSRPXUIY-UHFFFAOYSA-N,-0.3431
2-nitro-1-butanol,,CCC(CO)[N+]([O-])=O,MHIHRIPETCJEMQ-UHFFFAOYSA-N,-0.3436
Emtricitabine,CAS143491-57-0,Nc1nc(=O)n([C@@H]2CS[C@H](CO)O2)cc1F,XQSPYNMVSIKCOC-NTSWFWBYSA-N,-0.34
ethyl methyl carbonate,,CCOC(=O)OC,JBTWLSYIZRCDFO-UHFFFAOYSA-N,-0.344450681
2-aminopyridin-3-ol,,Nc1ncccc1O,BMTSZVZQNMNPCT-UHFFFAOYSA-N,-0.346106152
"propanal, 2-(hydroxyimino)-, oxime",,C\C(NO)=C/N=O,YYWZDZMCXPSGDF-NSCUHMNNSA-N,-0.3462
hydroxymethyl urea,,NC(=O)NCO,VGGLHLAESQEWCR-UHFFFAOYSA-N,-0.3463
"piperidine, 3-ethyl-,",,CC[C@@H]1CCCCN1,QBBKKFZGCDJDQK-SSDOTTSWSA-N,-0.3463
Cromolyn,CAS16110-51-3,O=C(O)c1cc(=O)c2c(OCC(O)COc3cccc4oc(C(=O)O)cc(=O)c34)cccc2o1,IMZMKUWMOSJXDT-UHFFFAOYSA-N,-0.35
Neostigmine,PubChemCID12313247,CN(C)C(=O)OC1=CC=CC(=C1)[N+](C)(C)C.[OH-],GTPJMRHVDZUPND-UHFFFAOYSA-M,-0.35
benzyl  carbamate,,NC(=O)OCC1=CC=CC=C1,PUJDIJCNWFYVJX-UHFFFAOYSA-N,-0.35
methylglyoxime,,CC(\C=N\O)=N/O,KFTHGQZJWAXFGG-ZUVMSYQZSA-N,-0.35
acyclovir ester vi;  acyclovir 3-(dipropylaminomethyl)benzoate,,CCCN(CCC)CC1=CC=CC(=C1)C(=O)OCCOC[N]2C=NC3=C2N=C(N)NC3=O,NVMBLZBSOKIKNO-UHFFFAOYSA-N,-0.35
"butanoic acid, 3-amino-2-hydroxy-",,CC(N)C(O)C(O)=O,QTRAXZHIRXYYPP-UHFFFAOYSA-N,-0.3535
2-methylbutanoic acid,,CCC(C)C(O)=O,WLAMNBDJUVNPJU-UHFFFAOYSA-N,-0.355953575
"cyclopentanecarbonitrile, 2-oxo-",,O=C1CCCC1C#N,IPMQSLPLJDKUPI-UHFFFAOYSA-N,-0.3567
isopestox,,CC(C)N[P](F)(=O)NC(C)C,UOSHUBFBCPGQAY-UHFFFAOYSA-N,-0.3574
"l-valine, n-acetyl-",,CC(C)[C@H](NC(C)=O)C(O)=O,IHYJTAOFMMMOPX-LURJTMIESA-N,-0.3599
2-aminothiazole,,s1c(N)ncc1,RAIPHJJURHTUIC-UHFFFAOYSA-N,-0.36
N-chloro-4-methylbenzenesulfonamide,,CC1=CC=C(S(=O)(=O)NCl)C=C1,NXTVQNIVUKXOIL-UHFFFAOYSA-N,-0.36
"hexanedioic acid, monoethyl ester",,CCOC(=O)CCCCC(O)=O,UZNLHJCCGYKCIL-UHFFFAOYSA-N,-0.3602
"glycerol 1,3-dinitrate",,OC(CO[N+]([O-])=O)CO[N+]([O-])=O,ASIGVDLTBLZXNC-UHFFFAOYSA-N,-0.366
"1,3-dioxolane, 2-(2-methylpropyl)-",,CC(C)CC1OCCO1,NLSSIIZCHYEPNV-UHFFFAOYSA-N,-0.3695
benzoylformic  acid;  phenylglyoxylic  acid,,OC(=O)C(=O)C1=CC=CC=C1,FAQJJMHZNSSFSM-UHFFFAOYSA-N,-0.37
"5-(carbamoylamino)-4,5-dihydroxy-2-oxoimidazolidine-4-carboxylic acid",,NC(=O)NC1(O)NC(=O)NC1(O)C(=O)O,DQFKPWNIZHSCFJ-UHFFFAOYSA-N,-0.37
Cerivastatin,CAS145599-86-6,COCc1c(C(C)C)nc(C(C)C)c(/C=C/[C@@H]2C[C@@H](O)CC(=O)O2)c1-c1ccc(F)cc1,MCBZSKZRUIWKPM-ANMDKAQQSA-N,-0.37
methyl 2-chloroacetate,,COC(=O)CCl,QABLOFMHHSOFRJ-UHFFFAOYSA-N,-0.372767961
"1-butanol, 3-ethoxy-",,CCOC(C)CCO,UTVOVDXBOIGHTP-UHFFFAOYSA-N,-0.3736
"2,2,4,4-tetramethylcyclobutane-1,3-diol",,CC1(C)C(O)C(C)(C)C1O,FQXGHZNSUOHCLO-UHFFFAOYSA-N,-0.373677588
copper(2+) diacetate,,[Cu++].CC([O-])=O.CC([O-])=O,OPQARKPSCNTWTJ-UHFFFAOYSA-L,-0.375535712
dibromane,,[Br-],CPELXLSAUQHCOX-UHFFFAOYSA-M,-0.376229243
cyclohexanol,,OC1CCCCC1,HPXRVTGHNJAIIH-UHFFFAOYSA-N,-0.3774
a-bromobutyric acid,,CCC(Br)C(O)=O,YAQLSKVCTLCIIE-UHFFFAOYSA-N,-0.3776
"disodium 2-(1,3-dioxo-2,3-dihydro-1H-inden-2-yl)quinoline-6,8-disulfonate",,[Na+].[Na+].[O-][S](=O)(=O)c1cc2ccc(nc2c(c1)[S]([O-])(=O)=O)C3C(=O)c4ccccc4C3=O,FZUOVNMHEAPVBW-UHFFFAOYSA-L,-0.377836954
3-methyl-3-pentanol,,CCC(C)(O)CC,FRDAATYAJDYRNW-UHFFFAOYSA-N,-0.38
"methyprylon;  3,3-diethyl-5-methyl-2,4-piperidinedione",,CCC1(CC)C(=O)NCC(C)C1=O,SIDLZWOQUZRBRU-UHFFFAOYSA-N,-0.38
"propanamide, 2-hydroxy-n-pentyl-",,CCCCCNC(=O)C(C)O,CBHYPXXMQKAMNM-UHFFFAOYSA-N,-0.3825
nickel(2+) difluoride,,[F-].[F-].[Ni++],DBJLJFTWODWSOF-UHFFFAOYSA-L,-0.383317077
calcium 2-sulfanidylacetate,,[Ca++].[O-]C(=O)CS,QVCFQEFEMBCIOI-UHFFFAOYSA-M,-0.383898135
copper(2+) ion bis(5-oxopyrrolidine-2-carboxylate),,[Cu++].[O-]C(=O)C1CCC(=O)N1.[O-]C(=O)C2CCC(=O)N2,CKBLQUOAMGLVCH-UHFFFAOYSA-L,-0.384250204
methyl propyl ether,,CCCOC,VNKYTQGIUYNRMY-UHFFFAOYSA-N,-0.3857
"1,4-benzenedimethanol",,OCc1ccc(CO)cc1,BWVAOONFBYYRHY-UHFFFAOYSA-N,-0.3861
serine,,N[C@@H](CO)C(O)=O,MTCFGRXMJLQNBG-REOHCLBHSA-N,-0.3861
"trisodium 2-[(E)-2-{4-[(E)-2-{4-[(4-amino-6-chloro-1,3,5-triazin-2-yl)amino]-5-sulfonatonaphthalen-1-yl}diazen-1-yl]-2,5-dimethylphenyl}diazen-1-yl]benzene-1,4-disulfonate",,[Na+].[Na+].[Na+].Cc1cc(N=Nc2cc(ccc2[S]([O-])(=O)=O)[S]([O-])(=O)=O)c(C)cc1N=Nc3ccc(Nc4nc(N)nc(Cl)n4)c5c3cccc5[S]([O-])(=O)=O,QODWDUXKFKJVCQ-UHFFFAOYSA-K,-0.386945691