Name,ID,SMILES,inchi,LogS
"2-(hydroxymethyl)-1,5-dimethylspiro[8-oxatricyclo[7.2.1.0^{2,7}]dodec-5-ene-12,2'-oxirane]-11-ol",,CC1=CC2OC3CC(O)C(C)(C2(CO)CC1)C31CO1,ZSRVBNXAPSQDFY-UHFFFAOYSA-N,-2.61
prop-2-en-1-yl hexanoate,,CCCCCC(=O)OCC=C,RCSBILYQLVXLJG-UHFFFAOYSA-N,-2.610551759
phthalimide,,O=C1NC(=O)c2ccccc12,XKJCHHZQLQNZHY-UHFFFAOYSA-N,-2.6114
"3,3-dimethylbut-1-yne",,CC(C)(C)C#C,PPWNCLVNXGCGAF-UHFFFAOYSA-N,-2.613556425
"1(3h)-isobenzofuranone, 3-methyl-6-nitro-",,CC1OC(=O)c2cc(ccc12)[N+]([O-])=O,DJBQBNLHDSCAJI-UHFFFAOYSA-N,-2.6157
chlorbufam,,CC(OC(=O)Nc1cccc(Cl)c1)C#C,ULBXWWGWDPVHAO-UHFFFAOYSA-N,-2.6172
dichloro(2-chlorovinyl)arsine (trans),,Cl/C=C/[As](Cl)Cl,GIKLTQKNOXNBNY-OWOJBTEDSA-N,-2.6177
disodium (2R)-2-(dodecanoyloxy)propane-1-sulfonate (2S)-2-(dodecanoyloxy)propane-1-sulfonate,,[Na+].[Na+].CCCCCCCCCCCC(=O)O[C@@H](C)C[S]([O-])(=O)=O.CCCCCCCCCCCC(=O)O[C@H](C)C[S]([O-])(=O)=O,OIDZHGLUIRZPNM-XUZVGNKESA-L,-2.618046836
sulfamethoxazole,,Cc1onc(N[S](=O)(=O)c2ccc(N)cc2)c1,JLKIGFTWXXRPMT-UHFFFAOYSA-N,-2.6183
"2,3,6-trichlorophenoxyacetic acid",,OC(=O)COc1c(Cl)ccc(Cl)c1Cl,GQOHYQAHKDLXCV-UHFFFAOYSA-N,-2.6198
"2,5-dichlorophenoxyacetic acid",,OC(=O)COC1=C(Cl)C=CC(=C1)Cl,YVPLLFUCNGVUAY-UHFFFAOYSA-N,-2.62
cefazolin,,CC1=NN=C(SCC2=C(N3C(SC2)C(NC(=O)C[N]4C=NN=N4)C3=O)C(O)=O)S1,MLYYVTUWGNIJIB-UHFFFAOYSA-N,-2.62
2-(4-bromophenylsulfonylamino)-4-(4-sulfamoylphenylamino)pyrimidine; n4-[2-(4-bromophenylsulfonylamino)pyrimidin-4-yl]sulfanilamide,,N[S](=O)(=O)C1=CC=C(NC2=NC(=NC=C2)N[S](=O)(=O)C3=CC=C(Br)C=C3)C=C1,FRXWFMQJGARFOJ-UHFFFAOYSA-N,-2.62
n-Heptyl_Carbamate,,NC(=O)OCCCCCCC,AXMPFOXRWZXZFA-UHFFFAOYSA-N,-2.62
"5-(2-Hydroxyethyl)-5-isobutyl-2-thioxodihydro-4,6(1H,5H)-pyrimidinedione",,CC(C)CC1(CCO)C(=O)NC(=S)NC1=O,TWFAUAOSZJCOQV-UHFFFAOYSA-N,-2.62
"2,3-dihydroxypropyl 2-(6-methoxynaphthalen-2-yl)propanoate",,COC1=CC=C2C=C(C(C)C(=O)OCC(O)CO)C=CC2=C1,NQGWSPZQESAHBV-UHFFFAOYSA-N,-2.62
2-chloro-4-[(4-hydroxyphenyl)diazenyl]benzoic acid,,O=C(O)C1=C(Cl)C=C(N=NC2=CC=C(O)C=C2)C=C1,AQQKGZJPWKEZJE-UHFFFAOYSA-N,-2.62
Reverse Transcriptase inhibitor 1,,CCN2c1ncccc1N(C)C(=O)c3cccnc23 ,SVFKQHLOBRUZGV-UHFFFAOYSA-N,-2.62
5_bromo_2_4_dihydroxybenzoic_acid,,Oc1c(Br)cc(C(O)=O)c(O)c1,ZRBCISXJLHZOMS-UHFFFAOYSA-N,-2.62
Cilazapril,CAS88768-40-5,CCOC(=O)[C@H](CCc1ccccc1)N[C@H]1CCCN2CCC[C@@H](C(=O)O)N2C1=O,HHHKFGXWKKUNCY-FHWLQOOXSA-N,-2.62
"1h-pyrrole-2-carboxylic acid, 3,5-dimethyl-, eth",,CCOC(=O)c1[nH]c(C)cc1C,IZSBSZYFPYIJDI-UHFFFAOYSA-N,-2.6212
3-methyl-5-(prop-2-enoyloxy)pentyl prop-2-enoate,,CC(CCOC(=O)C=C)CCOC(=O)C=C,IQGIEMYBDGDBMR-UHFFFAOYSA-N,-2.621433551
"sodium 1-amino-9,10-dihydro-4-[[4-[[(4-methylphenyl)sulphonyl]oxy]phenyl]amino]-9,10-dioxoanthracene-2-sulphonate",,[Na+].Cc1ccc(cc1)[S](=O)(=O)Oc2ccc(Nc3cc(c(N)c4C(=O)c5ccccc5C(=O)c34)[S]([O-])(=O)=O)cc2,YNYQQXPCRFXFIH-UHFFFAOYSA-M,-2.622198475
imidacloprid,,[O-][N+](=O)NC1=NCCN1Cc2ccc(Cl)nc2,YWTYJOPNNQFBPC-UHFFFAOYSA-N,-2.6223
"2,4,6-trichloro-1,3,5-triazine",,Clc1nc(Cl)nc(Cl)n1,MGNCLNQXLYJVJD-UHFFFAOYSA-N,-2.622338856
(2R)-2-[4-[5-(trifluoromethyl)pyridin-2-yl]oxyphenoxy]propanoic acid,,C[C@@H](Oc1ccc(Oc2ccc(cn2)C(F)(F)F)cc1)C(O)=O,YUVKUEAFAVKILW-SECBINFHSA-N,-2.622795669
ethenyl benzoate,,C=COC(=O)c1ccccc1,KOZCZZVUFDCZGG-UHFFFAOYSA-N,-2.622959195
Tenoxicam,CAS59804-37-4,CN1C(C(=O)Nc2ccccn2)=C(O)c2sccc2S1(=O)=O,LZNWYQJJBLGYLT-UHFFFAOYSA-N,-2.62
Topotecan,CAS123948-87-8,CCC1(O)C(=O)OCc2c1cc1n(c2=O)Cc2cc3c(CN(C)C)c(O)ccc3nc2-1,UCFGDBYHRUNTLO-UHFFFAOYSA-N,-2.62
pentachloroethane,,ClC(Cl)C(Cl)(Cl)Cl,BNIXVQGCZULYKV-UHFFFAOYSA-N,-2.6248
azacyclotetradecan-2-one,,O=C1CCCCCCCCCCCCN1,OETISESXIXCPAD-UHFFFAOYSA-N,-2.626
"1,3-butanedione, 1-phenyl-",,CC(=O)CC(=O)c1ccccc1,CVBUKMMMRLOKQR-UHFFFAOYSA-N,-2.6268
"1-propanone, 1-(4-hydroxyphenyl)-",,CCC(=O)c1ccc(N)cc1,FSWXOANXOQPCFF-UHFFFAOYSA-N,-2.627
Fleroxacin,CAS79660-72-3,CN1CCN(c2c(F)cc3c(=O)c(C(=O)O)cn(CCF)c3c2F)CC1,XBJBPGROQZJDOJ-UHFFFAOYSA-N,-2.63
Norfloxacin,CAS70458-96-7,CCn1cc(C(=O)O)c(=O)c2cc(F)c(N3CCNCC3)cc21,OGJPXUAPXNRGGI-UHFFFAOYSA-N,-2.63
isosorbide  dinitrate,,[O-][N+](=O)OC1COC2C(COC12)O[N+]([O-])=O,MOYKHGMNXAOIAT-UHFFFAOYSA-N,-2.63
3-chloro-2-nitrobenzoic  acid,,OC(=O)C1=C(C(=CC=C1)Cl)[N+]([O-])=O,VCHSXYHBMFKRBK-UHFFFAOYSA-N,-2.63
3-cyanobenzoic  acid,,OC(=O)C1=CC(=CC=C1)C#N,GYLKKXHEIIFTJH-UHFFFAOYSA-N,-2.63
"n1,n1-diethylsulfanilamide",,CCN(CC)[S](=O)(=O)C1=CC=C(N)C=C1,LTFVELCIFWEGGA-UHFFFAOYSA-N,-2.63
"pentane, 2-chloro-",,CCCC(C)Cl,NFRKUDYZEVQXTE-UHFFFAOYSA-N,-2.63
Hydrocinchonine,,c12ccccc1nccc2C(O)C3N(C4)CCC(C4CC)C3,WFJNHVWTKZUUTR-UHFFFAOYSA-N,-2.63
"1,3-benzothiazole-2-sulfonamide",,NS(=O)(=O)C1=NC2=C(C=CC=C2)S1,SDYMYAFSQACTQP-UHFFFAOYSA-N,-2.63
4-amino-N-(4-methylpyrimidin-2-yl)benzenesulfonamide,,CC1=CC=NC(NS(=O)(=O)C2=CC=C(N)C=C2)=N1,QPPBRPIAZZHUNT-UHFFFAOYSA-N,-2.63
3-O-Octanoylhexopyranose,,CCCCCCCC(=O)OC1C(O)C(O)OC(CO)C1O,XXOQQAWGIDQJOO-UHFFFAOYSA-N,-2.63
"[1-[(6-chloropyridin-3-yl)methyl]-4,5-dihydroimidazol-2-yl]cyanamide",,N#CN=C1NCCN1CC1=CN=C(Cl)C=C1,QNSLBNMSETUZJN-UHFFFAOYSA-N,-2.63
hydrochlorothiazide,,NS(=O)(=O)c2cc1c(NCNS1(=O)=O)cc2Cl ,JZUFKLXOESDKRF-UHFFFAOYSA-N,-2.63
"3(2h)-isothiazolone, 2-octyl-",,CCCCCCCCN1SC=CC1=O,JPMIIZHYYWMHDT-UHFFFAOYSA-N,-2.6301
3-chloropentane,,CCC(Cl)CC,CXQSCYIVCSCSES-UHFFFAOYSA-N,-2.6307
3-chloro-2-nitrobenzoic acid,,[O-]C(=O)c1cccc(Cl)c1[N+]([O-])=O,VCHSXYHBMFKRBK-UHFFFAOYSA-M,-2.6323
Cobalt molybdate,,[Co++].[O-][Mo]([O-])(=O)=O,KYYSIVCCYWZZLR-UHFFFAOYSA-N,-2.634320541
"benzoic acid, 5-formyl-2-hydroxy-",,OC(=O)c1cc(C=O)ccc1O,UTCFOFWMEPQCSR-UHFFFAOYSA-N,-2.6354
furaltadone,,[O-][N+](=O)c1oc(cc1)/C=N/N2CC(CN3CCOCC3)OC2=O,YVQVOQKFMFRVGR-VGOFMYFVSA-N,-2.6359
m-bromocinnamic acid,,OC(=O)/C=C/c1cccc(Br)c1,YEMUSDCFQUBPAL-SNAWJCMRSA-N,-2.636
5-chloro-2-nitrophenol,,Oc1cc(Cl)ccc1[N+]([O-])=O,MZDBQSFPAMTTIS-UHFFFAOYSA-N,-2.637377139
octan-1-ol,,CCCCCCCCO,KBPLFHHGFOOTCA-UHFFFAOYSA-N,-2.637593121
di-n-butyl ether,,CCCCOCCCC,DURPTKYDGMDSBL-UHFFFAOYSA-N,-2.6376
methapyrilene,,CN(C)CCN(Cc1sccc1)c2ccccn2,HNJJXZKZRAWDPF-UHFFFAOYSA-N,-2.6383
p-hydroxypropiophenone,,CCC(=O)c1ccc(O)cc1,RARSHUDCJQSEFJ-UHFFFAOYSA-N,-2.639
"1-(2,4-dihydroxy-6-{[(2S,3R,4S,5S,6R)-3,4,5-trihydroxy-6-(hydroxymethyl)oxan-2-yl]oxy}phenyl)-3-(4-hydroxyphenyl)propan-1-one",,OC[C@H]1O[C@@H](Oc2cc(O)cc(O)c2C(=O)CCc3ccc(O)cc3)[C@H](O)[C@@H](O)[C@@H]1O,IOUVKUPGCMBWBT-QNDFHXLGSA-N,-2.639897679
7-(hexanoyloxymethyl)theophylline,,CCCCCC(=O)OC[N]1C=NC2=C1C(=O)N(C)C(=O)N2C,UXSMYWBTLMYEGK-UHFFFAOYSA-N,-2.64
"acetrizoic  acid;  3-acetylamino-2,4,6-triiodobenzoic  acid",,CC(=O)NC1=C(I)C=C(I)C(=C1I)C(O)=O,GNOGSFBXBWBTIG-UHFFFAOYSA-N,-2.64
cyclopentane,,C1CCCC1,RGSFGYAAUTVSQA-UHFFFAOYSA-N,-2.64
tripelenamine,,n(c(N(Cc(cccc1)c1)CCN(C)C)ccc2)c2,UFLGIAIHIAPJJC-UHFFFAOYSA-N,-2.64
"3-(nonylamino)propane-1,2-diol",,CCCCCCCCCNCC(O)CO,QCZQSNXGKVXFGS-UHFFFAOYSA-N,-2.64
"N'-(6-chloro-2-methoxyacridin-9-yl)-N,N-diethylpentane-1,4-diamine",,CCN(CC)CCCC(C)NC1=C2C=C(OC)C=CC2=NC2=C1C=CC(Cl)=C2,GPKJTRJOBQGKQK-UHFFFAOYSA-N,-2.64
"1,1-dioxo-2-(2-oxopiperidin-3-yl)-1,2-benzothiazol-3-one",,O=C1NCCCC1N1C(=O)C2=C(C=CC=C2)S1(=O)=O,QQWLXNMPPFCVCD-UHFFFAOYSA-N,-2.64
"5-ethyl-5-phenylimidazolidine-2,4-dione",,CCC1(C2=CC=CC=C2)NC(=O)NC1=O,UDTWZFJEMMUFLC-UHFFFAOYSA-N,-2.64
"benzoic acid, 2-(acetyloxy)-, (methylthio)methyl",,CSCOC(=O)c1ccccc1OC(C)=O,YFFMJOPTIBTOJH-UHFFFAOYSA-N,-2.6404
benzyl-tributylazanium; 4-hydroxynaphthalene-1-sulfonate,,CCCC[N+](CCCC)(CCCC)Cc1ccccc1.Oc2ccc(c3ccccc23)[S]([O-])(=O)=O,XVJXBJTXFXPQAN-UHFFFAOYSA-M,-2.641819273
bismuth hydroxide nitrate oxide,,[O-][N+](=O)O[Bi](O[N+]([O-])=O)O[N+]([O-])=O,PPNKDDZCLDMRHS-UHFFFAOYSA-N,-2.642008137
"2,3,6-trichlorophenol",,Oc1c(Cl)ccc(Cl)c1Cl,XGCHAIDDPMFRLJ-UHFFFAOYSA-N,-2.6422
5-hexyl-5-methyldihydrofuran-2(3H)-one,,CCCCCCC1(C)CCC(=O)O1,ALWUKGXLBSQSMA-UHFFFAOYSA-N,-2.643261824
Phenylbutazone,CAS50-33-9,CCCCC1C(=O)N(c2ccccc2)N(c2ccccc2)C1=O,VYMDGNCVAMGZFE-UHFFFAOYSA-N,-2.64
"2-butenamide, n-(4-hydroxyphenyl)-",,CC=CC(=O)Nc1ccc(O)cc1,DAQBOXIXALYCPJ-UHFFFAOYSA-N,-2.6464
prynachlor,,CC(C#C)N(C(=O)CCl)c1ccccc1,DGPBHERUGBOSFZ-UHFFFAOYSA-N,-2.6468
"phosphoric acid, dibutyl 4-ethoxybutyl ester",,CCCCO[P](=O)(OCCCC)OCCCCOCC,XGWQSRFFKSAKGU-UHFFFAOYSA-N,-2.6468
naphthaleneacetic acid,,OC(=O)Cc1cccc2ccccc12,PRPINYUDVPFIRX-UHFFFAOYSA-N,-2.6468
4(1h)-pteridinethione,,S=C1N=CNc2nccnc12,GTLUQRDIJWHQGF-UHFFFAOYSA-N,-2.6471
"1(3h)-isobenzofuranone, 6-bromo-",,Brc1ccc2COC(=O)c2c1,BELKVKMBIAENSA-UHFFFAOYSA-N,-2.6472
"(2,2,3-trimethylcyclopent-3-en-1-yl)acetonitrile",,CC1=CCC(CC#N)C1(C)C,YYJOTFQPYNOYAB-UHFFFAOYSA-N,-2.647537233
"1,4-bis(vinyloxy)butane",,C=COCCCCOC=C,MWZJGRDWJVHRDV-UHFFFAOYSA-N,-2.64774351
"1,2-pentanediol, 1-phenyl-2-propyl-",,CCCC(O)(CCC)C(O)c1ccccc1,FGVUALJOVZKHOH-UHFFFAOYSA-N,-2.648
"(6R,7R)-3-[(acetyloxy)methyl]-7-amino-8-oxo-5-thia-1-azabicyclo[4.2.0]oct-2-ene-2-carboxylic acid",,CC(=O)OCC1=C(N2[C@H](SC1)[C@H](N)C2=O)C(O)=O,HSHGZXNAXBPPDL-HZGVNTEJSA-N,-2.648977722
butallylonal;  5-(2-bromoallyl)-5-sec-butylbarbituric  acid,,CCC(C)C1(CC(Br)=C)C(=O)NC(=O)NC1=O,FWZMBTIUIQUJFF-UHFFFAOYSA-N,-2.65
5-bromosalicylic acid,,OC(=O)C1=C(O)C=CC(=C1)Br,IEJOONSLOGAXNO-UHFFFAOYSA-N,-2.65
2-acetoxybenzoic acid dipropylcarbamoylmethyl ester,,CCCN(CCC)C(=O)COC(=O)C1=CC=CC=C1OC(C)=O,XCEUBKDKAYYEQR-UHFFFAOYSA-N,-2.65
"5-methyl-1-benzothiophene 1,1-dioxide",,CC1=CC2=C(C=C1)S(=O)(=O)C=C2,RPLDGRKYEITQNQ-UHFFFAOYSA-N,-2.65
"5-fluoro-1-(phenylmethyl)pyrimidine-2,4-dione",,O=C1NC(=O)N(CC2=CC=CC=C2)C=C1F,DOLBESUBPIZBQY-UHFFFAOYSA-N,-2.65
famotidine,,N\C(CCSCc1csc(\N=C(\N)N)n1)=N\S(=O)(N)=O,XUFQPHANEAPEMJ-UHFFFAOYSA-N,-2.65
calcium oxosilanebis(olate),,[Ca++].[O-][Si]([O-])=O,OYACROKNLOSFPA-UHFFFAOYSA-N,-2.650086994
"1(3h)-isobenzofuranone, 6-nitro-",,[O-][N+](=O)c1ccc2COC(=O)c2c1,RNWGZXAHUPFXLL-UHFFFAOYSA-N,-2.6511
pyrazoxyfen,,Cn1nc(C)c(C(=O)c2ccc(Cl)cc2Cl)c1OCC(=O)c3ccccc3,FKERUJTUOYLBKB-UHFFFAOYSA-N,-2.6514
2-methylbutyl acrylate,,CCC(C)COC(=O)C=C,NCTBYWFEJFTVEL-UHFFFAOYSA-N,-2.653206406
n-hexyl nicotinoate,,CCCCCCOC(=O)c1cccnc1,RVYGVBZGSFLJKH-UHFFFAOYSA-N,-2.6538
dl-tyrosine,,NC(Cc1ccc(O)cc1)C(O)=O,OUYCCCASQSFEME-UHFFFAOYSA-N,-2.6561
4-(2-methylbutan-2-yl)cyclohexan-1-one,,CCC(C)(C)C1CCC(=O)CC1,DCSKAMGZSIRJAQ-UHFFFAOYSA-N,-2.656892778
4-(methoxycarbonyl)-3-nitrobenzoic acid,,COC(=O)c1ccc(cc1[N+]([O-])=O)C(O)=O,MIIADZYPHVTLPR-UHFFFAOYSA-N,-2.657001848
dodine,,CCCCCCCCCCCCN=C(N)N.CC(O)=O,YIKWKLYQRFRGPM-UHFFFAOYSA-N,-2.6592
thebaine,,COC1=CC=C2C3CC4=C5C(=C(OC)C=C4)OC1C25CCN3C,FQXXSQDCDRQNQE-UHFFFAOYSA-N,-2.66
"4-[(1-methoxy-1-oxo-3-phenylpropan-2-yl)amino]-4-oxo-3-[(2,2,2-trifluoroacetyl)amino]butanoic acid",,COC(=O)C(CC1=CC=CC=C1)NC(=O)C(CC(=O)O)NC(=O)C(F)(F)F,CSFFTSRVLXCIIG-UHFFFAOYSA-N,-2.66
5-nitro-2-propan-2-yloxyaniline,,CC(C)OC1=C(C=C(C=C1)[N+](=O)[O-])N,NIHHCJZYYQHCHJ-UHFFFAOYSA-N,-2.66
chlorzoxazone,,c1cc2c(cc1Cl)[nH]c(=O)o2,TZFWDZFKRBELIQ-UHFFFAOYSA-N,-2.66
3-methyl-5-phenylpentan-1-ol,,CC(CCO)CCc1ccccc1,OXYRENDGHPGWKV-UHFFFAOYSA-N,-2.660025838
3-nonanol,,CCCCCCC(O)CC,GYSCXPVAKHVAAY-UHFFFAOYSA-N,-2.6608
thebaine,,COC1=CC=C2[C@H]3Cc4ccc(OC)c5O[C@@H]1[C@]2(CCN3C)c45,FQXXSQDCDRQNQE-VMDGZTHMSA-N,-2.661
4-methoxy-3-nitrobenzoic acid,,COc1ccc(cc1[N+]([O-])=O)C(O)=O,ANXBDAFDZSXOPQ-UHFFFAOYSA-N,-2.661319514
"benzenesulfonamide, 4-[(5-hydroxypentyl)thio]-",,N[S](=O)(=O)c1ccc(SCCCCCO)cc1,FDORWDSKZBVQSQ-UHFFFAOYSA-N,-2.6618
"2,3,3-trimethyl-3H-indole-5-carboxylic acid",,CC1=Nc2ccc(cc2C1(C)C)C(O)=O,QUDAPQXQGBIUAR-UHFFFAOYSA-N,-2.662589054
"5-chloro-1-(piperidin-4-yl)-2,3-dihydro-1H-1,3-benzodiazol-2-one",,Clc1ccc2N(C3CC[NH2+]CC3)C(=O)Nc2c1,DOAYWDKFDPSTSV-UHFFFAOYSA-O,-2.663075861
"11,16,17,21-tetrahydroxypregna-1,4-diene-3,20-dione",,CC12CC(O)C3C(CCC4=CC(=O)C=CC34C)C1CC(O)C2(O)C(=O)CO,SEKYBDYVXDAYPY-UHFFFAOYSA-N,-2.664548539
1-benzoylcyclohexan-1-ol,,OC1(CCCCC1)C(=O)c2ccccc2,QNODIIQQMGDSEF-UHFFFAOYSA-N,-2.664780194
m-bromofluorobenzene,,Fc1cccc(Br)c1,QDFKKJYEIFBEFC-UHFFFAOYSA-N,-2.6656
"1-fluoro-2,4-dinitrobenzene",,[O-][N+](=O)c1ccc(F)c(c1)[N+]([O-])=O,LOTKRQAVGJMPNV-UHFFFAOYSA-N,-2.6677
bromo(trifluoro)methane,,FC(F)(F)Br,RJCQBQGAPKAMLL-UHFFFAOYSA-N,-2.667770969
"benzene, 2-chloro-1,3,5-trinitro-",,[O-][N+](=O)c1cc(c(Cl)c(c1)[N+]([O-])=O)[N+]([O-])=O,HJRJRUMKQCMYDL-UHFFFAOYSA-N,-2.669
Miconazole,CAS22916-47-8,Clc1ccc(COC(Cn2ccnc2)c2ccc(Cl)cc2Cl)c(Cl)c1,BYBLEWFAAKGYCD-UHFFFAOYSA-N,-2.67
"3-methyl-2-propyl-2,3-dihydro-1h-imidazo[5,1b]quinazolin-9-one; 2-propyl-3-methylimidazoquinazolone",,CCCN1CN2C(=O)C3=C(C=CC=C3)N=C2C1C,LTMRJPIOLKBUKZ-UHFFFAOYSA-N,-2.67
"4-chloro-3,5-dimethylphenol;  4-chloro-3,5-xylenol",,CC1=C(Cl)C(=CC(=C1)O)C,OSDLLIBGSJNGJE-UHFFFAOYSA-N,-2.67
3-cyclohexyl-2-mercaptopropenoic  acid,,OC(=O)/C(S)=C/C1CCCCC1,FSQVNBYCGIYCSF-VURMDHGXSA-N,-2.67
4-isothiocyanatophenol,,OC1=CC=C(C=C1)N=C=S,HIPHYBWWZWRZOV-UHFFFAOYSA-N,-2.67
"4-methyl-5-(3-nitrobenzenesulfonylimido)-delta2-1,3,4-thiadiazoline-2-sulfonamide",,CN1N=C(SC1=N[S](=O)(=O)C2=CC=CC(=C2)[N+]([O-])=O)[S](N)(=O)=O,BODJFESIQMWAAQ-UHFFFAOYSA-N,-2.67
"3-methyl-1-benzothiophene 1,1-dioxide",,CC1=CS(=O)(=O)C2=C1C=CC=C2,DCAZNDCIMXHKOS-UHFFFAOYSA-N,-2.67
(4-acetamidophenyl) ethyl carbonate,,CCOC(=O)OC1=CC=C(NC(C)=O)C=C1,AXHGKAOXRWHBIF-UHFFFAOYSA-N,-2.67
"2,3,4-Trichlorophenol",,Oc1ccc(Cl)c(Cl)c1Cl,HSQFVBWFPBKHEB-UHFFFAOYSA-N,-2.67
"2,3,5-Trichlorophenol",,Oc1cc(Cl)cc(Cl)c1Cl,WWGQHTJIFOQAOC-UHFFFAOYSA-N,-2.67
chlorpheniramine,,C([C@H](c1ccccn1)c1ccc(cc1)Cl)CN(C)C,SOYKEARSMXGVTM-HNNXBMFYSA-N,-2.67
propyl benzoate,,CCCOC(=O)c1ccccc1,UDEWPOVQBGFNGE-UHFFFAOYSA-N,-2.6701
quinamine,,O[C@@]12CCO[C@@]1(Nc3ccccc23)[C@@H]4C[C@@H]5CCN4C[C@@H]5C=C,ALNKTVLUDWIWIH-HLQCWHFUSA-N,-2.6706
"2-chloro-1,4-dimethoxybenzene",,COc1ccc(OC)c(Cl)c1,QMXZSRVFIWACJH-UHFFFAOYSA-N,-2.672402404
2-tert-butyl-5-methylphenol,,Cc1ccc(c(O)c1)C(C)(C)C,XOUQAVYLRNOXDO-UHFFFAOYSA-N,-2.672674663
2-Ethylhexyl (2S)-2-hydroxypropanoate,,CCCCC(CC)COC(=O)[C@H](C)O,FECDACOUYKFOOP-RGURZIINSA-N,-2.67352571
2-ethylhexyl 2-hydroxypropanoate,,CCCCC(CC)COC(=O)C(C)O,FECDACOUYKFOOP-UHFFFAOYSA-N,-2.67352571
Zileuton,CAS111406-87-2,CC(c1cc2ccccc2s1)N(O)C(N)=O,MWLSOWXNZPKENC-UHFFFAOYSA-N,-2.67
"sodium 1-amino-4-({3-[(2-hydroxyethyl)sulfamoyl]-4,5-dimethylphenyl}amino)-9,10-dioxo-9,10-dihydroanthracene-2-sulfonate",,[Na+].Cc1cc(Nc2cc(c(N)c3C(=O)c4ccccc4C(=O)c23)[S]([O-])(=O)=O)cc(c1C)[S](=O)(=O)NCCO,MHHGZCMFNNAVCQ-UHFFFAOYSA-M,-2.674843542
pent-1-ene,,CCCC=C,YWAKXRMUMFPDSH-UHFFFAOYSA-N,-2.675673086
N-butylbenzenesulfonamide,,CCCCN[S](=O)(=O)c1ccccc1,IPRJXAGUEGOFGG-UHFFFAOYSA-N,-2.675782414
thalidomide,,O=C1CCC(N2C(=O)c3ccccc3C2=O)C(=O)N1,UEJJHQNACJXSKW-UHFFFAOYSA-N,-2.6758
"3,5,5-trimethylhexanal",,CC(CC=O)CC(C)(C)C,WTPYRCJDOZVZON-UHFFFAOYSA-N,-2.675906595
Simetryn,,CSc1nc(nc(n1)N(C)C)N(C)C,PRLMFHYBTOQSLN-UHFFFAOYSA-N,-2.676
5-quinolinecarboxylic acid,,OC(=O)c1cccc2ncccc12,RAYMXZBXQCGRGX-UHFFFAOYSA-N,-2.6774
manganese(2+) ion oxalate,,[Mn++].[O-]C(=O)C([O-])=O,RGVLTEMOWXGQOS-UHFFFAOYSA-L,-2.678081133
"8-cinnolinol, 4-methyl-",,Cc1cnnc2c(O)cccc12,OLTFEHQRFCVOLY-UHFFFAOYSA-N,-2.6783
"2,5-dinitrophenol",,Oc1cc(ccc1[N+]([O-])=O)[N+]([O-])=O,UWEZBKLLMKVIPI-UHFFFAOYSA-N,-2.6796
7-amino-4-hydroxynaphthalene-2-sulfonic acid,,Nc1ccc2c(O)cc(cc2c1)[S](O)(=O)=O,KYARBIJYVGJZLB-UHFFFAOYSA-N,-2.679885573
propylparaben;  propyl 4-hydroxybenzoate,,CCCOC(=O)C1=CC=C(O)C=C1,QELSKZZBTMNZEB-UHFFFAOYSA-N,-2.68
"7,7-dioxo-4,5,6,7-tetrahydro-2-sulfamoylthieno[2,3-b]thiopyran",,N[S](=O)(=O)C1=CC2=C(S1)[S](=O)(=O)CCC2,VVSSGCCPNDSLPL-UHFFFAOYSA-N,-2.68
sulfamethoxypyridazine;  3-sulfa-6-methoxypyridazine,,COC1=CC=C(N[S](=O)(=O)C2=CC=C(N)C=C2)N=N1,VLYWMPOKSSWJAL-UHFFFAOYSA-N,-2.68
carbromal;  adalin,,CCC(Br)(CC)C(=O)NC(N)=O,OPNPQXLQERQBBV-UHFFFAOYSA-N,-2.68
1-(pivaloyloxymethyl)allopurinol,,CC(C)(C)C(=O)OC[N]1N=CC2=C1N=CNC2=O,VNPZIVNSLRXKRF-UHFFFAOYSA-N,-2.68
"methyl  2,6-dimethyl-2-(1-cyclohexen-1-yl)malonurate",,CNC(=O)NC(=O)C(C)(C(=O)OC)C1=CCCCC1,DDCCQNVMPXJUAY-UHFFFAOYSA-N,-2.68
pteridine-2-thione,,S=C1NC2=C(C=N1)N=CC=N2,DAAQPMSPBHQGQA-UHFFFAOYSA-N,-2.68
"2-sulfamoyl-5-(n,n-dimethylsulfamoylamido)-1,3,4-thiadiazole",,CN(C)[S](=O)(=O)NC1=NN=C(S1)[S](N)(=O)=O,OXCKOUMFAKPIEL-UHFFFAOYSA-N,-2.68
proxicromil,,CCCC1=C2OC(=CC(=O)C2=C(O)C3=C1CCCC3)C(O)=O,VFFTVZUIDYJUQS-UHFFFAOYSA-N,-2.68
"1,7-phenantroline",,c1ccc2ccc3nccnc3c2c1,YUFRAQHYKKPYLH-UHFFFAOYSA-N,-2.68
"1,3,5-Trimethoxybenzene",,COC1=CC(OC)=CC(OC)=C1,LKUDPHPHKOZXCD-UHFFFAOYSA-N,-2.68
hydroxy-[5-[hydroxy(oxo)azaniumyl]oxyhexan-2-yloxy]-oxoazanium,,CC(CCC(C)O[N+](=O)O)O[N+](=O)O,BNKYXIYUCSAIFP-UHFFFAOYSA-N,-2.68
2-(phenylmethoxycarbothioylsulfanyl)acetic acid,,O=C(O)CSC(=S)OCC1=CC=CC=C1,RMBPSDLEKNOOSI-UHFFFAOYSA-N,-2.68
"9-hydroxy-10,13-dimethyl-1,2,6,7,8,11,12,14,15,16-decahydrocyclopenta[a]phenanthrene-3,17-dione",,CC12CCC3(O)C(CCC4=CC(=O)CCC43C)C1CCC2=O,SNMVJSSWZSJOGL-UHFFFAOYSA-N,-2.68
(3Z)-3-hydroxyimino-2-nitroinden-1-one,,C1=CC=C2C(=C1)/C(=N/O)/C(C2=O)[N+](=O)[O-],SIFGOGCSHSLASW-YFHOEESVSA-N,-2.68
4-(4-hydroxy-4-phenylpiperidin-1-yl)-1-phenylbutan-1-one,,O=C(CCCN1CCC(O)(C2=CC=CC=C2)CC1)C1=CC=CC=C1,IOCMJUXJUBZFSJ-UHFFFAOYSA-N,-2.68
"1,7-phenanthroline",,c1cnc2c(c1)ccc3ncccc23,OZKOMUDCMCEDTM-UHFFFAOYSA-N,-2.6806
kryptocyanine,,[I-].CCN1C=CC(=CC=Cc2cc[n+](CC)c3ccccc23)c4ccccc14,CEJANLKHJMMNQB-UHFFFAOYSA-M,-2.6816
bentazone,,CC(C)N1C(=O)c2ccccc2N[S]1(=O)=O,ZOMSMJKLGFBRBS-UHFFFAOYSA-N,-2.6817
n-methyl-2-isopropylphenylcarbam,,CNC(=O)Oc1ccccc1C(C)C,QBSJMKIUCUGGNG-UHFFFAOYSA-N,-2.6841
"3,4-dichlorophenoxyacetic acid",,OC(=O)COc1ccc(Cl)c(Cl)c1,SNYRXHULAWEECU-UHFFFAOYSA-N,-2.6846
nidroxyzone,,NC(=O)N(CCO)/N=C/c1oc(cc1)[N+]([O-])=O,FJVAAURIDNIYAE-BJMVGYQFSA-N,-2.6852
"1,5-hexadiene",,C=CCCC=C,PYGSKMBEVAICCR-UHFFFAOYSA-N,-2.6867
"Propylidynetrimethanol, ethoxylated, esters with acrylic acid",,CCC(COCCOC(=O)C=C)(COCCOC(=O)C=C)COCCOC(=O)C=C,MTPIZGPBYCHTGQ-UHFFFAOYSA-N,-2.687445856
dibenzylamine,,C(NCc1ccccc1)c2ccccc2,BWLUMTFWVZZZND-UHFFFAOYSA-N,-2.687630237
cyprofuram,,Clc1cccc(c1)N(C2CCOC2=O)C(=O)C3CC3,KRZUZYJEQBXUIN-UHFFFAOYSA-N,-2.6878
"sodium 1-amino-9,10-dioxo-4-[(3-propanamidophenyl)amino]-9,10-dihydroanthracene-2-sulfonate",,[Na+].CCC(=O)Nc1cccc(Nc2cc(c(N)c3C(=O)c4ccccc4C(=O)c23)[S]([O-])(=O)=O)c1,XYOLLVHQNKFTLW-UHFFFAOYSA-M,-2.687947003
1-methoxy-2-methylbenzene,,COc1ccccc1C,DTFKRVXLBCAIOZ-UHFFFAOYSA-N,-2.689083393
"2,4-diaminopteridine",,NC1=NC2=C(N=CC=N2)C(=N1)N,CITCTUNIFJOTHI-UHFFFAOYSA-N,-2.69
"6,7-pteridinedione",,O=C1NC2=C(NC1=O)N=CN=C2,HNSVDKLARSSFGE-UHFFFAOYSA-N,-2.69
purin-6-ylmercaptomethyl butyrate; s-butanoyloxymethyl-6-mercaptopurine; butanoic acid 9h-purin-6-ylthiomethyl ester,,CCCC(=O)OCSC1=NC=NC2=C1N=C[NH]2,QEDDLDVOLQFFLS-UHFFFAOYSA-N,-2.69
"2,3-dichloro-2-methylbutane",,CC(C)(Cl)C(Cl)C,TXTORVZCRUFBBO-UHFFFAOYSA-N,-2.69
4-nitroacetanilide,,O=C(Nc(ccc(c1)N(=O)=O)c1)C,NQRLPDFELNCFHW-UHFFFAOYSA-N,-2.69
"4,4-diethyl-1-methyl-2-phenylpyrazolidine-3,5-dione",,CCC1(CC)C(=O)N(C)N(C2=CC=CC=C2)C1=O,NUQJZLKRNLGSRH-UHFFFAOYSA-N,-2.69
"2-(2,4-dichlorophenoxy)ethanethioic S-acid",,OC(=S)COC1=C(Cl)C=C(Cl)C=C1,YLINLVDPMKICLO-UHFFFAOYSA-N,-2.69
"3-[[2-[2-(3,4-dimethoxyphenyl)ethylamino]-2-oxoethyl]amino]benzamide",,COC1=C(OC)C=C(CCNC(=O)CNC2=CC(C(N)=O)=CC=C2)C=C1,KZOFCELNVLSKGC-UHFFFAOYSA-N,-2.69
"tetrasodium 4-hydroxy-5-({4-[({4-[(8-hydroxy-3,6-disulfonato-1-naphthyl)diazenyl]-2-methoxy-5-methylphenyl}carbamoyl)amino]-5-methoxy-2-methylphenyl}diazenyl)naphthalene-2,7-disulfonate",,[Na+].[Na+].[Na+].[Na+].COc1cc(N=Nc2cc(cc3cc(cc(O)c23)[S]([O-])(=O)=O)[S]([O-])(=O)=O)c(C)cc1NC(=O)Nc4cc(C)c(cc4OC)N=Nc5cc(cc6cc(cc(O)c56)[S]([O-])(=O)=O)[S]([O-])(=O)=O,WNQPPENQFWLADQ-UHFFFAOYSA-J,-2.690313687
ethane,,CC,OTMSDBZUPAUEDD-UHFFFAOYSA-N,-2.691382006
disodium; chromium(+3) cation; 3-(3-methyl-5-oxido-1-phenylpyrazol-4-yl)diazenyl-4-oxidobenzenesulfonate; 1-(2-oxido-5-phenyldiazenylphenyl)diazenylnaphthalen-2-olate,,[Na+].[Na+].[Cr+3].Cc1nn(c([O-])c1N=Nc2cc(ccc2[O-])[S]([O-])(=O)=O)c3ccccc3.[O-]c4ccc(cc4N=Nc5c([O-])ccc6ccccc56)N=Nc7ccccc7,QTQCXPMMVMMHIW-UHFFFAOYSA-I,-2.691606678
2-tert-butyl-4-methylphenol,,Cc1ccc(O)c(c1)C(C)(C)C,IKEHOXWJQXIQAG-UHFFFAOYSA-N,-2.691753623
"4,4'-diaminobiphenyl-2,2'-disulfonic acid",,Nc1ccc(c2ccc(N)cc2[S](O)(=O)=O)c(c1)[S](O)(=O)=O,MBJAPGAZEWPEFB-UHFFFAOYSA-N,-2.691927271