Name,ID,SMILES,inchi,LogS
2-[(1-hydroxy-1-oxopropan-2-yl)sulfanylmethylsulfanyl]propanoic acid,,CC(SCSC(C)C(=O)O)C(=O)O,MWRZTYMWLMGRRT-UHFFFAOYSA-N,-1.82
"(1,2,4,5-tetraacetyloxy-1-methoxypentan-3-yl) acetate",,COC(OC(C)=O)C(OC(C)=O)C(OC(C)=O)C(COC(C)=O)OC(C)=O,UFMJMAPQIWYKER-UHFFFAOYSA-N,-1.82
4-[(4-amino-3-methylcyclohexyl)methyl]-2-methylcyclohexan-1-amine,,CC1CC(CCC1N)CC2CCC(N)C(C)C2,IGSBHTZEJMPDSZ-UHFFFAOYSA-N,-1.821038361
oct-1-en-3-ol,,CCCCCC(O)C=C,VSMOENVRRABVKN-UHFFFAOYSA-N,-1.821931715
5-chloro-7-iodoquinolin-8-ol,,Oc1c(I)cc(Cl)c2cccnc12,QCDFBFJGMNKBDO-UHFFFAOYSA-N,-1.822256226
"benzenesulfonamide, 4-[(2-hydroxyethyl)thio]-",,N[S](=O)(=O)c1ccc(SCCO)cc1,LTXDVFFEVZJDGT-UHFFFAOYSA-N,-1.8239
"tetrasodium 7,7'-[(6-morpholin-4-yl-1,3,5-triazine-2,4-diyl)diimino]bis{4-hydroxy-3-[(4-methoxy-2-sulfonatophenyl)diazenyl]naphthalene-2-sulfonate}",,[Na+].[Na+].[Na+].[Na+].COc1ccc(N\N=C\2C(=O)c3ccc(Nc4nc(Nc5ccc6C(=O)C(=N/Nc7ccc(OC)cc7[S]([O-])(=O)=O)/C(=Cc6c5)[S]([O-])(=O)=O)nc(n4)N8CCOCC8)cc3C=C2[S]([O-])(=O)=O)c(c1)[S]([O-])(=O)=O,RYOLKKOXNWDTKY-KCQDMBLDSA-J,-1.825282751
"cyclohexanol, 1-ethynyl-, carbamate",,NC(=O)OC1(CCCCC1)C#C,GXRZIMHKGDIBEW-UHFFFAOYSA-N,-1.8253
"({bis[(2-ethylhexanoyl)oxy]-2,4-dioxa-3-bora-1,5-dicobaltapentan-3-yl}oxy)cobaltio 2-ethylhexanoate",,CCCCC(CC)C(=O)O[Co]OB(O[Co])O[Co](OC(=O)C(CC)CCCC)OC(=O)C(CC)CCCC,HRNSQLGPRFFUNA-UHFFFAOYSA-K,-1.825456143
o-phenanthroline,,c1cnc2c(c1)ccc3cccnc23,DGEZNRSVGBDHLK-UHFFFAOYSA-N,-1.826
3-hydroxy-4-methoxybenzaldehyde,,COc1ccc(C=O)cc1O,JVTZFYYHCGSXJV-UHFFFAOYSA-N,-1.826243245
"2-furancarboxylic acid, 3,4-dichloro-",,OC(=O)c1occ(Cl)c1Cl,UIBLWJMAOKDSRF-UHFFFAOYSA-N,-1.8263
"2,4-pyridinedicarboxylic acid",,OC(=O)c1ccnc(c1)C(O)=O,MJIVRKPEXXHNJT-UHFFFAOYSA-N,-1.8268
Methylparaben,,COC(=O)c1ccc(O)cc1,LXCFILQKKLGQFO-UHFFFAOYSA-N,-1.827
"pentanamide, 2-bromo-2-propyl-",,CCCC(Br)(CCC)C(N)=O,KORNHGGSVGTRLI-UHFFFAOYSA-N,-1.8281
carbetamide,,CCNC(=O)[C@H](C)OC(=O)Nc1ccccc1,AMRQXHFXNZFDCH-VIFPVBQESA-N,-1.8293
3-amino-4-hydroxybenzene-1-sulfonic acid,,Nc1cc(ccc1O)[S](O)(=O)=O,ULUIMLJNTCECJU-UHFFFAOYSA-N,-1.829744737
1-(n-propylcarbamoyl)-5-fluorouracil;  1-propylaminocarbonyl-5-fluorouracil,,CCCNC(=O)N1C=C(F)C(=O)NC1=O,PIUCHDXNDBQRTH-UHFFFAOYSA-N,-1.83
7-theophyllinylmethyl  acetate;  7-(acetoxymethyl)theophylline,,CN1C(=O)N(C)C2=C([N](COC(C)=O)C=N2)C1=O,BKXGMMLAXFAIGQ-UHFFFAOYSA-N,-1.83
Carbetamide,,CCNC(=O)C(C)OC(=O)Nc1ccccc1,AMRQXHFXNZFDCH-UHFFFAOYSA-N,-1.83
"1-(1,5-dimethyl-3-oxo-2-phenylpyrazol-4-yl)-3-ethylurea",,CCNC(=O)NC1=C(C)N(C)N(C2=CC=CC=C2)C1=O,CCCTUMZHWVZMQA-UHFFFAOYSA-N,-1.83
"(1E,2Z)-4-Ethyl-N,N'-dihydroxy-1,2-cyclohexanediimine",,CCC1CCC(=NO)C(=NO)C1,GBAJQUQTRTUWDV-UHFFFAOYSA-N,-1.83
"N-(4-aminophenyl)-1,3-dihydrobenzo[de]isoquinoline-2-carboximidamide",,NC1=CC=C(N=C(N)N2CC3=CC=CC4=CC=CC(=C43)C2)C=C1,VUGYASBDBBKPHA-UHFFFAOYSA-N,-1.83
"n,n'-bis-phenylacetyl-cystine",,OC(=O)C(CSSCC(NC(=O)Cc1ccccc1)C(O)=O)NC(=O)Cc2ccccc2,DWRCRIMPBCLETK-UHFFFAOYSA-N,-1.833
4-amino-3-nitrophenol,,Nc1ccc(O)cc1[N+]([O-])=O,IQXUIDYRTHQTET-UHFFFAOYSA-N,-1.833764651
2-butanethiol,,CCC(C)S,LOCHFZBWPCLPAN-UHFFFAOYSA-N,-1.8346
2-[({4-[(oxiran-2-ylmethoxy)methyl]cyclohexyl}methoxy)methyl]oxirane,,C1CC(CCC1COCC2CO2)COCC3CO3,VQMQXWYQIIUJIT-UHFFFAOYSA-N,-1.835797234
"nicotinic acid, butyl ester",,CCCCOC(=O)c1cccnc1,DQULIMIQTCDUAN-UHFFFAOYSA-N,-1.8367
"phenol, 2-iodo-6-methyl-",,Cc1cccc(I)c1O,GZZUGNNHSZONTO-UHFFFAOYSA-N,-1.8378
Tazobactam,,C[C@]1(Cn2ccnn2)[C@@H](N3[C@@H](CC3=O)[S]1(=O)=O)C(O)=O,LPQZKKCYTLCDGQ-WEDXCCLWSA-N,-1.838461676
novantrone,,[H+].[H+].[Cl-].[Cl-].OCCNCCNc1ccc(NCCNCCO)c2C(=O)c3c(O)ccc(O)c3C(=O)c12,ZAHQPTJLOCWVPG-UHFFFAOYSA-N,-1.8388
"acetamide, n-(4-ethoxy-2-methylphenyl)-",,CCOc1ccc(NC(C)=O)c(C)c1,GWGGYWFWMFMBKT-UHFFFAOYSA-N,-1.839
"2-propenoic acid, 3-(2-furanyl)-",,OC(=O)/C=C/c1occc1,ZCJLOOJRNPHKAV-ONEGZZNKSA-N,-1.8392
"benzoic acid, 5-amino-2-sulfanilyl-",,Nc1ccc(N)c(c1)[S](=O)(=O)c2ccccc2C(O)=O,RLFQWOIZGISXEW-UHFFFAOYSA-N,-1.8395
imazamox,,COCc1cnc(C2=NC(C)(C(C)C)C(=O)N2)c(c1)C(O)=O,NUPJIGQFXCQJBK-UHFFFAOYSA-N,-1.84
methyl acetylsalicylate;  2-acetoxybenzoic acid methyl ester,,COC(=O)C1=CC=CC=C1OC(C)=O,ONWPLBKWMAUFGZ-UHFFFAOYSA-N,-1.84
penbutolol,,CC(C)(C)NCC(O)COC1=C(C=CC=C1)C2CCCC2,KQXKVJAGOJTNJS-UHFFFAOYSA-N,-1.84
2-(diethylacetoxy)benzoic  acid,,CCC(CC)C(=O)OC1=C(C=CC=C1)C(O)=O,JOOGNBMRVNYBET-UHFFFAOYSA-N,-1.84
beta-cyclodextrin;  betadex,,OCC1OC2OC3C(O)C(O)C(OC3CO)OC4C(O)C(O)C(OC4CO)OC5C(O)C(O)C(OC5CO)OC6C(O)C(O)C(OC6CO)OC7C(O)C(O)C(OC7CO)OC8C(O)C(O)C(OC8CO)OC1C(O)C2O,WHGYBXFWUBPSRW-UHFFFAOYSA-N,-1.84
gibberellic_acid,,O=C(OC(C1C(C2(CC(O)(C3=C)CC4)C3)C(=O)O)(C24)C=CC5O)C15C,IXORZMNAPKEEDV-UHFFFAOYSA-N,-1.84
Chloralose,,O(C(OC(C1O)C(O)CO)C1O2)C2C(Cl)(Cl)Cl,OJYGBLRPYBAHRT-UHFFFAOYSA-N,-1.84
1-nitroacridin-9-amine,,C1=CC=C2C(=C1)C(=C3C(=N2)C=CC=C3[N+](=O)[O-])N,IOQZSOCPFYNJIG-UHFFFAOYSA-N,-1.84
"4-heptanol, 3-methyl-",,CCCC(O)C(C)CC,JMRDKKYZLXDPLN-UHFFFAOYSA-N,-1.8406
gibberellic acid,,CC12[C@@H](O)C=C[C@@]3(OC1=O)[C@@H]4CC[C@]5(O)C[C@]4(CC5=C)[C@H]([C@H]23)C(O)=O,IXORZMNAPKEEDV-QTWFBFKQSA-N,-1.8406
"benzene, iodyl-",,O=[I](=O)c1ccccc1,BDOLQESNFGCNSC-UHFFFAOYSA-N,-1.8416
1-carbamimidamido-N-(2-methylphenyl)methanimidamide,,Cc1ccccc1N=C(N)N=C(N)N,SQZCAOHYQSOZCE-UHFFFAOYSA-N,-1.842241499
1-heptanol,,CCCCCCCO,BBMCTIGTTCKYKF-UHFFFAOYSA-N,-1.8425
"2,6-dichlorobenzamide",,NC(=O)c1c(Cl)cccc1Cl,JHSPCUHPSIUQRB-UHFFFAOYSA-N,-1.8427
".alpha.-d-glucofuranose,",,OCC(O)[C@H]1OC2O[C@@H](O[C@@H]2[C@H]1O)C(Cl)(Cl)Cl,OJYGBLRPYBAHRT-OPKHMCHVSA-N,-1.843
ronidazole,,Cn1c(COC(N)=O)ncc1[N+]([O-])=O,PQFRTXSWDXZRRS-UHFFFAOYSA-N,-1.8433
"benzenepropanoic acid, 2-nitro-.beta.-oxo-",,OC(=O)CC(=O)c1ccccc1[N+]([O-])=O,PJDGOXXKHPBMQA-UHFFFAOYSA-N,-1.8434
demeton-s-methyl,,CCSCCS[P](=O)(OC)OC,WEBQKRLKWNIYKK-UHFFFAOYSA-N,-1.8438
"2,4,6-trimethylcyclohex-3-ene-1-carbaldehyde",,CC1CC(=CC(C)C1C=O)C,YJSUCBQWLKRPDL-UHFFFAOYSA-N,-1.844063724
"phosphoric acid, dibutyl ethyl ester",,CCCCO[P](=O)(OCC)OCCCC,NAIBHQRYLPOHGG-UHFFFAOYSA-N,-1.8456
sodium methanethiolate,,[Na+].C[S-],RMBAVIFYHOYIFM-UHFFFAOYSA-M,-1.845668452
1-(3-chlorophenyl)propan-1-one,,CCC(=O)c1cccc(Cl)c1,PQWGFUFROKIJBO-UHFFFAOYSA-N,-1.84670557
sodium 3-[[4-[(2-ethoxy-5-methylphenyl)azo]-1-naphthyl]azo]benzenesulphonate,,[Na+].CCOc1ccc(C)cc1N=Nc2ccc(N=Nc3cccc(c3)[S]([O-])(=O)=O)c4ccccc24,PHBKXNWUWOCVEI-UHFFFAOYSA-M,-1.847135544
2-bromo-1-chloropropane,,CC(Br)CCl,PUJJZGFFAQHYEX-UHFFFAOYSA-N,-1.8476
Quinidine Sulfate Dihydrate,CAS6591-63-5,C=C[C@H]1CN2CC[C@H]1C[C@@H]2[C@@H](O)c1ccnc2ccc(OC)cc12.C=C[C@H]1CN2CC[C@H]1C[C@@H]2[C@@H](O)c1ccnc2ccc(OC)cc12.O.O.O=S(=O)(O)O,ZHNFLHYOFXQIOW-AHSOWCEXSA-N,-1.85
[(2-chlorophenyl)methyl]dimethylamine,,CN(C)Cc1ccccc1Cl,MZKKJAOOPDDXQQ-UHFFFAOYSA-N,-1.849355422
Bleomycin A2,CAS11116-31-7,Cc1c(N)nc([C@H](CC(N)=O)NC[C@H](N)C(N)=O)nc1C(=O)N[C@H](C(=O)N[C@H](C)[C@@H](O)[C@@H](C)C(=O)N[C@H](C(=O)NCCc1nc(-c2nc(C(=O)NCCC[S+](C)C)cs2)cs1)[C@@H](C)O)[C@@H](O[C@H]1O[C@@H](CO)[C@@H](O)[C@H](O)[C@@H]1O[C@H]1O[C@H](CO)[C@@H](O)[C@H](OC(N)=O)[C@@H]1O)c1c[nH]cn1,OYVAGSVQBOHSSS-GONMCNJQSA-O,-1.85
amantadine;  1-aminoadamantane,,N[C]12C[CH]3[CH2]C([CH2][CH](C3)C1)C2,DKNWSYNQZKUICI-UHFFFAOYSA-N,-1.85
heptylamine,,CCCCCCCN,WJYIASZWHGOTOU-UHFFFAOYSA-N,-1.85
anisole,,c1ccccc1OC,RDOXTESZEPMUJZ-UHFFFAOYSA-N,-1.85
d-Fenchone,,O=C(C(CC1C2)(C2)C)C1(C)C,LHXDLQBQYFFVNW-UHFFFAOYSA-N,-1.85
1-(4-ethoxyphenyl)-1-ethylurea,,CCOC1=CC=C(N(CC)C(N)=O)C=C1,XLHOPKWSUMNBQP-UHFFFAOYSA-N,-1.85
"3-[[2-[2-(3,4-dimethoxyphenyl)ethylamino]-2-oxoethyl]amino]-N-methylbenzamide",,CNC(=O)C1=CC=CC(NCC(=O)NCCC2=CC(OC)=C(OC)C=C2)=C1,JTAGHJPZEDNHHA-UHFFFAOYSA-N,-1.85
N-(2-methylphenyl)-3-oxobutanamide,,CC(=O)CC(=O)Nc1ccccc1C,TVZIWRMELPWPPR-UHFFFAOYSA-N,-1.850192261
Phenmetrazine,CAS134-49-6,CC1NCCOC1c1ccccc1,OOBHFESNSZDWIU-UHFFFAOYSA-N,-1.85
d-fenchone,,CC1(C)[C@@H]2CC[C@@](C)(C2)C1=O,LHXDLQBQYFFVNW-XCBNKYQSSA-N,-1.8507
"tris(prop-2-en-1-yl)-1,3,5-triazinane-2,4,6-trione",,C=CCN1C(=O)N(CC=C)C(=O)N(CC=C)C1=O,KOMNUTZXSVSERR-UHFFFAOYSA-N,-1.852601969
"3,4-pyridinedicarboxylic acid",,OC(=O)c1ccncc1C(O)=O,MUYSADWCWFFZKR-UHFFFAOYSA-N,-1.8538
5-pentyloxolan-2-one,,CCCCC[C@H]1CCC(=O)O1,OALYTRUKMRCXNH-QMMMGPOBSA-N,-1.85529404
"ethyl 3,4-dihydroxybenzoate",,CCOC(=O)c1ccc(O)c(O)c1,KBPUBCVJHFXPOC-UHFFFAOYSA-N,-1.855655062
2-propylpentanoic acid,,CCCC(CCC)C(O)=O,NIJJYAXOARWZEE-UHFFFAOYSA-N,-1.857977427
2-ethylhexanoic acid,,CCCCC(CC)C(O)=O,OBETXYAYXDNJHR-UHFFFAOYSA-N,-1.858
"l-tyrosine, n-acetyl-, ethyl ester",,CCOC(=O)[C@H](Cc1ccc(O)cc1)NC(C)=O,SKAWDTAMLOJQNK-LBPRGKRZSA-N,-1.8586
"2,5-dimethoxyaniline",,COc1ccc(OC)c(N)c1,NAZDVUBIEPVUKE-UHFFFAOYSA-N,-1.858869039
4-amino-2-sulfobenzoic acid,,NC1=CC(=C(C=C1)C(O)=O)[S](O)(=O)=O,YPNUYFJLBFZDTE-UHFFFAOYSA-N,-1.86
7-(ethoxycarboxymethyl)theophylline;  7-(ethoxycarbonyloxymethyl)theophylline,,CCOC(=O)OC[N]1C=NC2=C1C(=O)N(C)C(=O)N2C,CRROIRSDBVLXGH-UHFFFAOYSA-N,-1.86
7-(butyryloxymethyl)theophylline;  7-(butanoyloxymethyl)theophylline,,CCCC(=O)OC[N]1C=NC2=C1C(=O)N(C)C(=O)N2C,BCXKOIICQXXQJZ-UHFFFAOYSA-N,-1.86
ethyl 2-acetamido-3-phenylpropanoate,,CCOC(=O)C(CC1=CC=CC=C1)NC(C)=O,YIVZYFDBEPMPNL-UHFFFAOYSA-N,-1.86
4-methyl-2-nitroaniline,,Cc1ccc(N)c(c1)[N+]([O-])=O,DLURHXYXQYMPLT-UHFFFAOYSA-N,-1.860061225
"3-heptanol, 5-methyl-",,CCC(C)CC(O)CC,SECKOSOTZOBWEI-UHFFFAOYSA-N,-1.8602
disulfoton sulfoxide,,CCO[P](=S)(OCC)SCC[S](=O)CC,UPUGLJYNCXXUQV-UHFFFAOYSA-N,-1.8609
"phenol, 3-(1,1-dimethylethyl)-",,CC(C)(C)c1cccc(O)c1,CYEKUDPFXBLGHH-UHFFFAOYSA-N,-1.8614
1-[2-(2-butoxyethoxy)ethoxy]butane,,CCCCOCCOCCOCCCC,KZVBBTZJMSWGTK-UHFFFAOYSA-N,-1.862006084
"1,1,1-trifluoro-2,2-dichloroethane",,FC(F)(F)C(Cl)Cl,OHMHBGPWCHTMQE-UHFFFAOYSA-N,-1.8623
"4(1h)-pteridinone, hydrazone",,NN=C1N=CNc2nccnc12,IDWVTPLLYFMNEX-UHFFFAOYSA-N,-1.8632
"2,2'-(1,3-phenylene)dipropan-2-ol",,CC(C)(O)c1cccc(c1)C(C)(C)O,UGPWRRVOLLMHSC-UHFFFAOYSA-N,-1.863533046
"hexanedioic acid, 2-amino-",,NC(CCCC(O)=O)C(O)=O,OYIFNHCXNCRBQI-UHFFFAOYSA-N,-1.8648
Bepridil,CAS64706-54-3,CC(C)COCC(CN(Cc1ccccc1)c1ccccc1)N1CCCC1,UIEATEWHFDRYRU-UHFFFAOYSA-N,-1.87
"buta-1,3-diene",,C=CC=C,KAKZBPTYRLMSJV-UHFFFAOYSA-N,-1.8668457
"3-(5-Tert-butyl-1,3,4-thiadiazol-2-yl)-1-(2,2-dimethoxyethyl)-1-methylurea",,COC(CN(C)C(=O)Nc1sc(nn1)C(C)(C)C)OC,JEBBYIJCXLFPCX-UHFFFAOYSA-N,-1.8678
"1(3h)isobenzofuranone-3,3-dimethyl",,CC1(C)OC(=O)c2ccccc12,YFBZUWUJSCLVST-UHFFFAOYSA-N,-1.8684
1-(3-methoxyphenyl)ethan-1-one,,COc1cccc(c1)C(C)=O,BAYUSCHCCGXLAY-UHFFFAOYSA-N,-1.869107387
3-phenylbutanal,,CC(CC=O)c1ccccc1,MYHGOWDLVRDUFA-UHFFFAOYSA-N,-1.86983286
n-2-(2-acetoxybenzoyloxy)acetylglycine ethyl ester,,CCOC(=O)CNC(=O)COC(=O)C1=CC=CC=C1OC(C)=O,RENNXOTVYDMFOD-UHFFFAOYSA-N,-1.87
coniferin dihydrate,,COC1=C(OC2OC(CO)C(O)C(O)C2O)C=CC(=C1)\C=C\CO,SFLMUHDGSQZDOW-NSCUHMNNSA-N,-1.87
thebainone,,COC1=C(O)C2=C(CC3C4C=CC(=O)CC24CCN3C)C=C1,SLJDAVMWFVYEFI-UHFFFAOYSA-N,-1.87
Methyl hexanoate,,CCCCCC(=O)OC,NUKZAGXMHTUAFE-UHFFFAOYSA-N,-1.87
"2,4,6-trihydroxybenzophenone",,Oc1cc(O)c(c(O)c1)C(=O)c2ccccc2,CPEXFJVZFNYXGU-UHFFFAOYSA-N,-1.8708
3-methylcyclohexanone,,CC1CCCC(=O)C1,UJBOOUHRTQVGRU-UHFFFAOYSA-N,-1.8738
"(1-methyl-1,2-ethanediyl)bis[oxy(methyl-2,1-ethanediyl)] diacrylate",,CC(COCC(C)OC(=O)C=C)OCC(C)OC(=O)C=C,ZDQNWDNMNKSMHI-UHFFFAOYSA-N,-1.875569091
buthidazole,,CN1CC(O)N(C1=O)c2sc(nn2)C(C)(C)C,SWMGXKSQWDSBKV-UHFFFAOYSA-N,-1.8773
butyl prop-2-enoate,,CCCCOC(=O)C=C,CQEYYJKEWSMYFG-UHFFFAOYSA-N,-1.877340851
"2-heptanol, 4-methyl-",,CCCC(C)CC(C)O,GUHWHNUGIGOSCN-UHFFFAOYSA-N,-1.8779
octan-1-amine dibutyl sulfanylphosphonate,,CCCCCCCCN.CCCCO[P](S)(=O)OCCCC,IVMOXNPAUDFORG-UHFFFAOYSA-N,-1.879697302
phenylmethyl N-(2-amino-2-oxoethyl)carbamate,,NC(=O)CNC(=O)OCC1=CC=CC=C1,HQYMUNCIMNFLDT-UHFFFAOYSA-N,-1.88
2-methoxy-5-nitroaniline,,COc1ccc(cc1N)[N+]([O-])=O,NIPDVSLAMPAWTP-UHFFFAOYSA-N,-1.883279356
2-methylpropyl propanoate,,CCC(=O)OCC(C)C,FZXRXKLUIMKDEL-UHFFFAOYSA-N,-1.8841
p-nitrobenzyl alcohol,,OCc1ccc(cc1)[N+]([O-])=O,JKTYGPATCNUWKN-UHFFFAOYSA-N,-1.8841
n-amyl acetate,,CCCCCOC(C)=O,PGMYKACGEOXYJE-UHFFFAOYSA-N,-1.8841
"2,5,6-trimethylcyclohex-2-en-1-one",,CC1CC=C(C)C(=O)C1C,QAQCUBLNHBKTRM-UHFFFAOYSA-N,-1.885266962
benzenesulfonyl chloride,,Cl[S](=O)(=O)c1ccccc1,CSKNSYBAZOQPLR-UHFFFAOYSA-N,-1.88532188
2H-chromen-2-one,,O=C1Oc2ccccc2C=C1,ZYGHJZDHTFUPRJ-UHFFFAOYSA-N,-1.886030361
demerol,,CCOC(=O)C1(CCN(C)CC1)c2ccccc2,XADCESSVHJOZHK-UHFFFAOYSA-N,-1.8861
azacycloundecan-2-one,,O=C1CCCCCCCCCN1,WULPUQZASCZTPO-UHFFFAOYSA-N,-1.8862
phenylmercuric acetate,,CC(=O)O[Hg]c1ccccc1,XEBWQGVWTUSTLN-UHFFFAOYSA-M,-1.8868
4-fluoro-2-propyl-phenol,,CCCc1cc(F)ccc1O,BQWYJUVFIXTFHH-UHFFFAOYSA-N,-1.887
l-sparteine,,C1CCN2C[C@@H]3C[C@@H](CN4CCCC[C@H]34)[C@@H]2C1,SLRCCWJSBJZJBV-ZQDZILKHSA-N,-1.8871
"disodium 7,7'-(carbonyldiimino)bis[4-hydroxy-3-(phenylazo)naphthalene-2-sulphonate]",,[Na+].[Na+].Oc1c2ccc(NC(=O)Nc3ccc4c(O)c(N=Nc5ccccc5)c(cc4c3)[S]([O-])(=O)=O)cc2cc(c1N=Nc6ccccc6)[S]([O-])(=O)=O,DSARWKALPGYFTA-UHFFFAOYSA-L,-1.887246692
"potassium sodium 4,4'-bis[6-anilino-4-[bis(2-hydroxyethyl)amino]-1,3,5-triazin-2-yl]amino]stilbene-2,2'-disulphonate",,[Na+].[Na+].[K].[K].OCCN(CCO)c1nc(Nc2ccccc2)nc(Nc3ccc(\C=C\c4ccc(Nc5nc(Nc6ccccc6)nc(n5)N(CCO)CCO)cc4[S]([O-])(=O)=O)c(c3)[S]([O-])(=O)=O)n1,DQMJISXEQAOPNR-MOSUJMLHSA-L,-1.887960137
2-phenyl-1H-imidazole,,[nH]1ccnc1c2ccccc2,ZCUJYXPAKHMBAZ-UHFFFAOYSA-N,-1.88938304
"1,1,2-trichloropropane",,CC(Cl)C(Cl)Cl,GRSQYISVQKPZCW-UHFFFAOYSA-N,-1.8898
"1,1,1-trichloropropane",,CCC(Cl)(Cl)Cl,AVGQTJUPLKNPQP-UHFFFAOYSA-N,-1.8898
"spiro-5,5-dimethylenebarbituric  acid",,O=C1NC(=O)C2(CC2)C(=O)N1,PQVZDTWRGIHYCU-UHFFFAOYSA-N,-1.89
isobutyl  5-fluorouracil-1-carboxylate;  1-isobutoxycarbonyl-5-fluorouracil,,CC(C)COC(=O)N1C=C(F)C(=O)NC1=O,DXDPKLIQOAVOAM-UHFFFAOYSA-N,-1.89
cefroxadine,,COC1=C(N2C(SC1)C(NC(=O)C(N)C3=CCC=CC3)C2=O)C(O)=O,RDMOROXKXONCAL-UHFFFAOYSA-N,-1.89
o-chlorobenzoic_acid,,O=C(O)c(c(ccc1)Cl)c1,IKCLCGXPQILATA-UHFFFAOYSA-N,-1.89
Sparteine,,C1CCN2CC(C3)C4CCCCN4CC3C2C1,SLRCCWJSBJZJBV-UHFFFAOYSA-N,-1.89
"1,4-dioxaspiro[4.5]decan-2-ylmethyl carbamate",,NC(=O)OCC1COC2(CCCCC2)O1,RDESHSVNCKVUPO-UHFFFAOYSA-N,-1.89
hydroxy-[3-[hydroxy(oxo)azaniumyl]oxybutan-2-yloxy]-oxoazanium,,CC(C(C)O[N+](=O)O)O[N+](=O)O,NRIAWHNANBCNBY-UHFFFAOYSA-N,-1.89
hydroxy-[1-[hydroxy(oxo)azaniumyl]oxybutan-2-yloxy]-oxoazanium,,CCC(CO[N+](=O)O)O[N+](=O)O,DVQIFYFNGGBKPZ-UHFFFAOYSA-N,-1.89
4-[4-(4-oxopentan-2-ylideneamino)phenyl]iminopentan-2-one,,CC(=O)CC(C)=NC1=CC=C(N=C(C)CC(C)=O)C=C1,OZPNAHBGWVFYIF-UHFFFAOYSA-N,-1.89
meconin,,COc1ccc2COC(=O)c2c1OC,ORFFGRQMMWVHIB-UHFFFAOYSA-N,-1.8903
Mianserin,CAS24219-97-4,CN1CCN2c3ccccc3Cc3ccccc3C2C1,UEQUQVLFIPOEMF-UHFFFAOYSA-N,-1.89
2-methoxy-4-(methoxymethyl)phenol,,COCc1ccc(O)c(OC)c1,USDDPDQEVLAOBO-UHFFFAOYSA-N,-1.893447681
"3-[(1R,3R)-3-[(dimethylcarbamoylamino)methyl]-3,5,5-trimethylcyclohexyl]-1,1-dimethylurea",,CN(C)C(=O)NC[C@@]1(C)C[C@@H](CC(C)(C)C1)NC(=O)N(C)C,UZEZQRZYPITAFY-WBMJQRKESA-N,-1.893818753
nonanedioic acid,,OC(=O)CCCCCCCC(O)=O,BDJRBEYXGGNYIS-UHFFFAOYSA-N,-1.894461449
disodium 6-amino-5-[(E)-2-[4-(2-bromoprop-2-enamido)-2-(4-methyl-3-sulfonatobenzenesulfonyl)phenyl]diazen-1-yl]naphthalene-2-sulfonate,,[Na+].[Na+].Cc1ccc(cc1[S]([O-])(=O)=O)[S](=O)(=O)c2cc(NC(=O)C(Br)=C)ccc2N=Nc3c(N)ccc4cc(ccc34)[S]([O-])(=O)=O,QTUYUTJUQCCNBJ-UHFFFAOYSA-L,-1.894836231
disodium 5-[(E)-2-(2-hydroxynaphthalen-1-yl)diazen-1-yl]-2-{4-[(E)-2-(2-hydroxynaphthalen-1-yl)diazen-1-yl]-2-sulfonatophenyl}benzene-1-sulfonate,,[Na+].[Na+].[O-][S](=O)(=O)c1cc(N\N=C2/C(=O)C=Cc3ccccc23)ccc1c4ccc(N\N=C5/C(=O)C=Cc6ccccc56)cc4[S]([O-])(=O)=O,UJLOYSKARDZKTC-IQRNGZOLSA-L,-1.897313906
Cyproheptadine,CAS129-03-3,CN1CCC(=C2c3ccccc3C=Cc3ccccc32)CC1.Cl,ZPMVNZLARAEGHB-UHFFFAOYSA-N,-1.9
meconin,,c1c(OC)c(OC)C2C(=O)OCC2c1,TVDYTVXARUOWKL-UHFFFAOYSA-N,-1.899
Anhydrovinblastine; Anhydrovincaleukoblastine,CAS81165-17-5,CCC1=C[C@@H]2CN(CCc3c([nH]c4ccccc34)[C@@](C(=O)OC)(c3cc4c(cc3OC)N(C)C3[C@@](O)(C(=O)OC)[C@H](OC(C)=O)[C@]5(CC)C=CCN6CC[C@]43[C@H]65)C2)C1,FFRFGVHNKJYNOV-PCYZBDGTSA-N,-1.9
4-(methoxycarbonyl)acetanilide;  4-acetylaminobenzoic acid methyl ester,,COC(=O)C1=CC=C(NC(C)=O)C=C1,QKWTXJSLAZKYGV-UHFFFAOYSA-N,-1.9
"n,o-diacetyl-l-tyrosinamide",,CC(=O)NC(CC1=CC=C(OC(C)=O)C=C1)C(N)=O,QETYUVKBQJLLLM-UHFFFAOYSA-N,-1.9
proxicromil analog ii;  deshydroxyproxicromil,,CCCC1=C2CCCCC2=CC3=C1OC(=CC3=O)C(O)=O,DLKZWVIRKURGIR-UHFFFAOYSA-N,-1.9
chlorodibromomethane,,ClC(Br)Br,GATVIKZLVQHOMN-UHFFFAOYSA-N,-1.9
di(phenyl)-piperidin-2-ylmethanol,,OC(C1=CC=CC=C1)(C1=CC=CC=C1)C1CCCCN1,XSWHNYGMWWVAIE-UHFFFAOYSA-N,-1.9
2-(2-{2-[(2-methylprop-2-enoyl)oxy]ethoxy}ethoxy)ethyl 2-methylprop-2-enoate,,CC(=C)C(=O)OCCOCCOCCOC(=O)C(C)=C,HWSSEYVMGDIFMH-UHFFFAOYSA-N,-1.900555252
"2-bromo-1,1,1,2-tetrafluoroethane",,FC(Br)C(F)(F)F,RZXZIZDRFQFCTA-UHFFFAOYSA-N,-1.901
"3-(3,4-Dimethoxyphenyl)propanenitrile",,COc1ccc(CCC#N)cc1OC,LECKQPWCSYMCDR-UHFFFAOYSA-N,-1.901344783
N-(4-methoxyphenyl)-3-oxobutanamide,,COc1ccc(NC(=O)CC(C)=O)cc1,SWAJJKROCOJICG-UHFFFAOYSA-N,-1.901477183
(5S)-2-methyl-5-(prop-1-en-2-yl)cyclohex-2-en-1-one,,CC(=C)[C@H]1CC=C(C)C(=O)C1,ULDHMXUKGWMISQ-VIFPVBQESA-N,-1.90265366
propyl butyrate,,CCCOC(=O)CCC,HUAZGNHGCJGYNP-UHFFFAOYSA-N,-1.905
[2-(4-aminobenzenesulfonyl)ethoxy]sulfonic acid,,Nc1ccc(cc1)[S](=O)(=O)CCO[S](O)(=O)=O,IALORYHODRVWKZ-UHFFFAOYSA-N,-1.90511867
Sertraline Hydrochloride,CAS79559-97-0,CN[C@H]1CC[C@@H](c2ccc(Cl)c(Cl)c2)c2ccccc21.Cl,BLFQGGGGFNSJKA-XHXSRVRCSA-N,-1.91
2-phenyloxirane,,C1OC1c2ccccc2,AWMVMTVKBNGEAK-UHFFFAOYSA-N,-1.906541121
p-acetoxyacetanilide,,CC(=O)Nc1ccc(OC(C)=O)cc1,UJAOSPFULOFZRR-UHFFFAOYSA-N,-1.9076
"4-heptanol, 2-methyl-",,CCCC(O)CC(C)C,QXPLZEKPCGUWEM-UHFFFAOYSA-N,-1.9079
Vinblastine,CAS865-21-4,CC[C@]1(O)C[C@H]2CN(CCc3c([nH]c4ccccc34)[C@@](C(=O)OC)(c3cc4c(cc3OC)N(C)[C@H]3[C@@](O)(C(=O)OC)[C@H](OC(C)=O)[C@]5(CC)C=CCN6CC[C@]43[C@@H]65)C2)C1,JXLYSJRDGCGARV-XQKSVPLYSA-N,-1.91
2-nitroacetanilide,,CC(=O)Nc1ccccc1[N+]([O-])=O,BUNFNRVLMKHKIT-UHFFFAOYSA-N,-1.9093
hyoscyamine,,CN1[C@@H]2CC[C@H]1CC(C2)OC(=O)[C@H](CO)c3ccccc3,RKUNBYITZUJHSG-VFSICIBPSA-N,-1.91
alpha-terpineol,,CC1=CCC(CC1)C(C)(C)O,WUOACPNHFRMFPN-UHFFFAOYSA-N,-1.91
atropine;  hyoscyamine,,CN1C2CCC1CC(C2)OC(=O)C(CO)C3=CC=CC=C3,RKUNBYITZUJHSG-UHFFFAOYSA-N,-1.91
"2,2-bis(ethylsulfonyl)butane;  trional",,CCC(C)([S](=O)(=O)CC)[S](=O)(=O)CC,LKACJLUUJRMGFK-UHFFFAOYSA-N,-1.91
1-(2-chloroethoxycarbonyl)-5-fluorouracil,,FC1=CN(C(=O)NC1=O)C(=O)OCCCl,IBSNJPJRDXEITQ-UHFFFAOYSA-N,-1.91
"1,5-dimethyl-2-phenyl-4-propan-2-ylpyrazol-3-one",,CC1=C(C(C)C)C(=O)N(C2=CC=CC=C2)N1C,PXWLVJLKJGVOKE-UHFFFAOYSA-N,-1.91
"2-(1,3-dioxoisoindol-2-yl)-2-methylbutanoic acid",,CCC(C)(C(=O)O)N1C(=O)C2=C(C=CC=C2)C1=O,DRAGYQKESAIJPL-UHFFFAOYSA-N,-1.91
calcium dihydroxide,,[OH-].[OH-].[Ca++],AXCZMVOFGPJBDE-UHFFFAOYSA-L,-1.910729926
"2,5-dichlorophenol",,Oc1cc(Cl)ccc1Cl,RANCECPPZPIPNO-UHFFFAOYSA-N,-1.911165602
bromoform,,BrC(Br)Br,DIKBFYAXUHHXCS-UHFFFAOYSA-N,-1.9113
"4-pteridinol, 6,7-diethyl-",,CCc1nc2ncnc(O)c2nc1CC,WIUUIGUJULBTKD-UHFFFAOYSA-N,-1.9122
oxadixyl,,COCC(=O)N(N1CCOC1=O)c2c(C)cccc2C,UWVQIROCRJWDKL-UHFFFAOYSA-N,-1.913
methyl 2-oxo-2-phenylacetate,,COC(=O)C(=O)c1ccccc1,YLHXLHGIAMFFBU-UHFFFAOYSA-N,-1.914237348
2-(7-ethyl-1H-indol-3-yl)ethan-1-ol,,CCc1cccc2c(CCO)c[nH]c12,UVSDNCAZVSQJQA-UHFFFAOYSA-N,-1.91532641
Vincristine,CAS57-22-7,CCC1(CC2CC(C3=C(CCN(C2)C1)C4=CC=CC=C4N3)(C5=C(C=C6C(=C5)C78CCN9C7C(C=CC9)(C(C(C8N6C=O)(C(=O)OC)O)OC(=O)C)CC)OC)C(=O)OC)O.OS(=O)(=O)O,AQTQHPDCURKLKT-UHFFFAOYSA-N,-1.92
"benzenesulfonamide, 3-amino-4-methyl-",,Cc1ccc(cc1N)[S](N)(=O)=O,HCZDHXMDYWZPPN-UHFFFAOYSA-N,-1.9169
"ethanol, 2-(ethylphenylamino)-",,CCN(CCO)c1ccccc1,HYVGFUIWHXLVNV-UHFFFAOYSA-N,-1.9171
"1-(2,6-dimethylphenoxy)acetone",,CC(=O)COc1c(C)cccc1C,XDJULAUHYAJQBU-UHFFFAOYSA-N,-1.918544784
"4-(oxiran-2-ylmethoxy)-N,N-bis(oxiran-2-ylmethyl)aniline",,C1OC1COc2ccc(cc2)N(CC3CO3)CC4CO4,AHIPJALLQVEEQF-UHFFFAOYSA-N,-1.919234725
"4-benzothiazolol, 2-amino-",,Nc1sc2cccc(O)c2n1,PFQJPSASUCHKRO-UHFFFAOYSA-N,-1.9196
"1,2-benzenediol, 4-(1,1-dimethylethyl)-",,CC(C)(C)c1ccc(O)c(O)c1,XESZUVZBAMCAEJ-UHFFFAOYSA-N,-1.9197
methazolamide,,CN1N=C(SC1=NC(C)=O)[S](N)(=O)=O,FLOSMHQXBMRNHR-UHFFFAOYSA-N,-1.92