Name,ID,SMILES,inchi,LogS
"1,1,1-trifluoro-2-chloroethane",,FC(F)(F)CCl,CYXIKYKBLDZZNW-UHFFFAOYSA-N,-1.1098
2-methyl-1-pentanol,,OCC(CCC)C,PFNHSEQQEPMLNI-UHFFFAOYSA-N,-1.11
"2-(hydroxymethyl)-6-(2-naphthalen-1-ylethoxy)oxane-3,4,5-triol",,OCC1OC(OCCC2=C3C=CC=CC3=CC=C2)C(O)C(O)C1O,CFFQRHTWQPXZID-UHFFFAOYSA-N,-1.11
"pteridine, 4-methoxy-",,COc1ncnc2nccnc12,KCCOKUSVNPDIBJ-UHFFFAOYSA-N,-1.113
"pteridine, 2-methoxy-",,COc1ncc2nccnc2n1,NIKKSNUDXYPTRO-UHFFFAOYSA-N,-1.113
strontium,,[Sr],CIOAGBVUUVVLOB-UHFFFAOYSA-N,-1.113943352
mechlorethamine,,CN(CCCl)CCCl,HAWPXGHAZFHHAD-UHFFFAOYSA-N,-1.1141
"7-methyl-3,4-dihydro-2H-1,5-benzodioxepin-3-one",,Cc1ccc2OCC(=O)COc2c1,SWUIQEBPZIHZQS-UHFFFAOYSA-N,-1.114155449
sodium 4-[(E)-2-(2-hydroxynaphthalen-1-yl)diazen-1-yl]benzene-1-sulfonate,,[Na+].Oc1ccc2ccccc2c1N=Nc3ccc(cc3)[S]([O-])(=O)=O,CQPFMGBJSMSXLP-UHFFFAOYSA-M,-1.115857896
4-(2-aminoethyl)phenol,,NCCc1ccc(O)cc1,DZGWFCGJZKJUFP-UHFFFAOYSA-N,-1.116107831
"2,4(1h,3h)-pyrimidinedione, 5-aminodihydro-1,3-d",,CN1C(=O)C(N)C(=S)N(C)C1=O,CAMGETFHWUKWEO-UHFFFAOYSA-N,-1.117
"2h-pyran-2,4(3h)-dione, 6-methyl-",,CC1=CC(=O)CC(=O)O1,GYHBVAHWGBJKHA-UHFFFAOYSA-N,-1.1185
bis-(2-chloroethyl)_ether,,ClCCOCCCl,ZNSMNVMLTJELDZ-UHFFFAOYSA-N,-1.12
2-(2-cyanoethylamino)-3-methylbutanoic acid,,CC(C)C(NCCC#N)C(=O)O,RXNXODTWPQTIHO-UHFFFAOYSA-N,-1.12
2-[(2-amino-4-methylpentanoyl)amino]-3-(1H-indol-3-yl)propanoic acid,,CC(C)CC(N)C(=O)NC(CC1=CNC2=C1C=CC=C2)C(=O)O,BQVUABVGYYSDCJ-UHFFFAOYSA-N,-1.12
"2,2'-Dichloroethyl ether  ",,ClC(Cl)COCC(Cl)Cl,SXQXMKMHOFIAHT-UHFFFAOYSA-N,-1.12
Zolpidem Tartrate,CAS99294-93-6,Cc1ccc(-c2nc3ccc(C)cn3c2CC(=O)N(C)C)cc1.O=C(O)[C@@H](O)[C@H](O)C(=O)O,NYVVVBWEVRSKIU-WUUYCOTASA-N,-1.13
Apomorphine,CAS58-00-4,CN1CCc2cccc3c2[C@H]1Cc1ccc(O)c(O)c1-3,VMWNQDUVQKEIOC-CYBMUJFWSA-N,-1.13
"2-phenyl-4,5-dihydro-1H-imidazole",,C1C[NH+]=C(N1)c2ccccc2,BKCCAYLNRIRKDJ-UHFFFAOYSA-O,-1.126518075
cycloheximide,,C[C@H]1C[C@H](C)C(=O)[C@@H](C1)[C@H](O)CC2CC(=O)NC(=O)C2,YPHMISFOHDHNIV-FSZOTQKASA-N,-1.127
Cephradine,CAS38821-53-3,CC1=C(C(=O)O)N2C(=O)[C@@H](NC(=O)[C@H](N)C3=CCC=CC3)[C@H]2SC1,RDLPVSKMFDYCOR-UEKVPHQBSA-N,-1.13
4-methyl-1-pentanol,,CC(C)CCCO,PCWGTDULNUVNBN-UHFFFAOYSA-N,-1.1286
Fentanyl,CAS437-38-7,CCC(=O)N(c1ccccc1)C1CCN(CCc2ccccc2)CC1,PJMPHNIQZUBGLI-UHFFFAOYSA-N,-1.13
5-methylbarbituric acid,,CC1C(=O)NC(=O)NC1=O,GOMAEJQBTWAPAN-UHFFFAOYSA-N,-1.13
3-butanoyloxymethyl-5-fluorouracil,,CCCC(=O)OCN1C(=O)NC=C(F)C1=O,RKGNIPKNVYBZPC-UHFFFAOYSA-N,-1.13
"3-[2-(n-methylguanidino)-acetylamino]-n-(5-sulfamoyl-[1,3,4]thiadiazol-2-yl)propionamide",,CN(CC(=O)NCCC(=O)NC1=NN=C(S1)[S](N)(=O)=O)C(N)=N,DCHWBJNKHKXUAM-UHFFFAOYSA-N,-1.13
cycloheximide,,CC1CC(C)C(=O)C(C1)C(O)CC2CC(=O)NC(=O)C2,YPHMISFOHDHNIV-UHFFFAOYSA-N,-1.13
2-acetamido-4-methylpentanoic acid,,CC(=O)NC(CC(C)C)C(=O)O,WXNXCEHXYPACJF-UHFFFAOYSA-N,-1.13
"2,2-bis(bromomethyl)propane-1,3-diol",,OCC(CO)(CBr)CBr,CHUGKEQJSLOLHL-UHFFFAOYSA-N,-1.130401751
n-butylformate,,CCCCOC=O,NMJJFJNHVMGPGM-UHFFFAOYSA-N,-1.1307
"3,3-dimethyl-1-butanol",,CC(C)(C)CCO,DUXCSEISVMREAX-UHFFFAOYSA-N,-1.1308
"2,6-dichlorobenzoic acid",,OC(=O)c1c(Cl)cccc1Cl,MRUDNSFOFOQZDA-UHFFFAOYSA-N,-1.1309
sodium; 5-chloro-3-[3-methyl-5-oxido-1-(3-sulfonatophenyl)pyrazol-4-yl]diazenyl-2-oxidobenzenesulfonate; chromium(+3) cation,,[Na+].[Cr+3].Cc1nn(c([O-])c1N=Nc2cc(Cl)cc(c2[O-])[S]([O-])(=O)=O)c3cccc(c3)[S]([O-])(=O)=O,HQBKGOCRCWUTTD-UHFFFAOYSA-J,-1.133167485
amidothion,,COCCNC(=O)CS[P](=S)(OC)OC,GDTZUQIYUMGJRT-UHFFFAOYSA-N,-1.1356
1-(4-hydroxyphenyl)ethan-1-one,,CC(=O)c1ccc(O)cc1,TXFPEBPIARQUIG-UHFFFAOYSA-N,-1.138382451
"3-(5-imino-3-methyl-4,5-dihydro-1H-pyrazol-1-yl)benzene-1-sulfonic acid",,CC1=NN(C(=N)C1)c2cccc(c2)[S](O)(=O)=O,INHXSMASASFALB-UHFFFAOYSA-N,-1.138788219
Cefazolin,CAS25953-19-9,Cc1nnc(SCC2=C(C(=O)O)N3C(=O)[C@@H](NC(=O)Cn4cnnn4)[C@H]3SC2)s1,MLYYVTUWGNIJIB-BXKDBHETSA-N,-1.14
n-(hydroxymethyl)thiobenzamide,,OCNC(=S)C1=CC=CC=C1,ULLWVDKMTKASGV-UHFFFAOYSA-N,-1.14
6-methoxypteridine,,COC1=NC2=C(N=CN=C2)N=C1,AWIJPALBOQNRBS-UHFFFAOYSA-N,-1.14
"5-creatinylamido-2-sulfamoyl-1,3,4-thiadiazole",,CN(CC(=O)NC1=NN=C(S1)[S](N)(=O)=O)C(N)=N,UGKZABQBFUBOFG-UHFFFAOYSA-N,-1.14
"theophyllin-7-ylmethyl 3-(n,n-diethylcarbamoyl)propionate; n,n-diethylsuccinamic acid theophyllin-7-ylmethyl ester",,CCN(CC)C(=O)CCC(=O)OC[N]1C=NC2=C1C(=O)N(C)C(=O)N2C,GEUZJBMJDHYJEC-UHFFFAOYSA-N,-1.14
"N,N-Bis(2-cyanoethyl)leucine",,CC(C)CC(C(=O)O)N(CCC#N)CCC#N,MJPVXUCPOHIGDM-UHFFFAOYSA-N,-1.14
hexyl 2-hydroxypropanoate,,CCCCCCOC(=O)C(C)O,KDPXOGYCOOUWOS-UHFFFAOYSA-N,-1.14
N-(diethylsulfamoyl)-N-ethylethanamine,,CCN(CC)S(=O)(=O)N(CC)CC,IYIAWAACGTUPCC-UHFFFAOYSA-N,-1.14
Sumatriptan Succinate,CAS103628-48-4,CNS(=O)(=O)Cc1ccc2[nH]cc(CCN(C)C)c2c1.O=C(O)CCC(=O)O,PORMUFZNYQJOEI-UHFFFAOYSA-N,-1.14
Capecitabine,CAS154361-50-9,CCCCCOC(=O)Nc1nc(=O)n([C@@H]2O[C@H](C)[C@@H](O)[C@H]2O)cc1F,GAGWJHPBXLXJQN-UORFTKCHSA-N,-1.14
methyl phenylsulfonyl acetate,,COC(=O)C[S](=O)(=O)c1ccccc1,NLEAIFBNKPYTGN-UHFFFAOYSA-N,-1.1406
4-aminobenzenesulfonic acid,,Nc1ccc(cc1)[S](O)(=O)=O,HVBSAKJJOYLTQU-UHFFFAOYSA-N,-1.141273025
cytosine,,NC1=CC=NC(=O)N1,OPTASPLRGRRNAP-UHFFFAOYSA-N,-1.1426
"6h-purin-6-one, 2-chloro-1,7-dihydro-7-methyl-,",,Cn1cnc2nc(Cl)nc(NN)c12,DSBMZQSBWWASSE-UHFFFAOYSA-N,-1.1427
"1,7-naphthyridin-8(7h)-one",,O=C1NC=Cc2cccnc12,VTUQISVBYRDYAW-UHFFFAOYSA-N,-1.1428
4-aminobenzonitrile,,Nc1ccc(cc1)C#N,YBAZINRZQSAIAY-UHFFFAOYSA-N,-1.142974365
"pteridine, 2,6,7-trimethyl-",,Cc1ncc2nc(C)c(C)nc2n1,ZGWOCNDIGLJDDX-UHFFFAOYSA-N,-1.1442
t-butyl acetate,,CC(=O)OC(C)(C)C,WMOVHXAZOJBABW-UHFFFAOYSA-N,-1.1443
"hexasodium;(3~{Z})-5-[[4-morpholin-4-yl-6-[4-[(~{E})-2-[4-[[4-morpholin-4-yl-6-[[(7~{Z})-8-oxo-7-(phenylhydrazinylidene)-3,6-disulfonatonaphthalen-1-yl]amino]-1,3,5-triazin-2-yl]amino]-2-sulfonatophenyl]ethenyl]-3-sulfonatoanilino]-1,3,5-triazin-2-yl]amino]-4-oxo-3-(phenylhydrazinylidene)naphthalene-2,7-disulfonate",,C1N(CCOC1)C2=NC(=NC(=N2)NC3=C4C(=O)/C(=N/NC5=CC=CC=C5)/C(=CC4=CC(=C3)S(=O)(=O)[O-])S(=O)(=O)[O-])NC6=CC(=C(C=C6)/C=C/C7=C(C=C(C=C7)NC8=NC(=NC(=N8)N9CCOCC9)NC1=C2C(=O)/C(=N/NC3=CC=CC=C3)/C(=CC2=CC(=C1)S(=O)(=O)[O-])S(=O)(=O)[O-])S(=O)(=O)[O-])S(=O)(=O)[O-].[Na+].[Na+].[Na+].[Na+].[Na+].[Na+],XGUYBIZUGAOMJN-NSVLGCOKSA-H,-1.144796153
1-phenylpyrazolidin-3-one,,O=C1CCN(N1)c2ccccc2,CMCWWLVWPDLCRM-UHFFFAOYSA-N,-1.144823301
Quinacrine; Mepacrine,CAS83-89-6,CCN(CC)CCCC(C)NC1=C2C=C(C=CC2=NC3=C1C=CC(=C3)Cl)OC.O.O.Cl.Cl,RZFNKJVCPDLQQA-UHFFFAOYSA-N,-1.15
"phosphoric acid, butyl diethyl ester",,CCCCO[P](=O)(OCC)OCC,DWSYMNWJOYKKCK-UHFFFAOYSA-N,-1.1466
"phosphonic diamide, p-phenyl-",,N[P](N)(=O)c1ccccc1,SIZHJVYZJFWGHF-UHFFFAOYSA-N,-1.1482
5-methyl-hex-3-enoic acid,,CC(C)C=CCC(O)=O,CIBMDQOEVWDTDT-UHFFFAOYSA-N,-1.1487
"succinamic acid, 3-amino-2-hydroxy-",,NC(C(O)C(O)=O)C(N)=O,XTAAXERUXNEDCQ-UHFFFAOYSA-N,-1.1494
2-isopropyl-4(5)-nitroimidazole,,CC(C)C1=NC(=C[NH]1)[N+]([O-])=O,SQZCZXRYOJJCDU-UHFFFAOYSA-N,-1.15
4-methoxybenzohydrazide,,COC1=CC=C(C(=O)NN)C=C1,REKQLYUAUXYJSZ-UHFFFAOYSA-N,-1.15
"N,N-dimethyl-1,3-dihydrobenzo[de]isoquinoline-2-carboximidamide",,CN=C(NC)N1CC2=CC=CC3=CC=CC(=C32)C1,NDDWQZYCAZDNEH-UHFFFAOYSA-N,-1.15
"2,2-dimethyl-3-pentanol",,CCC(O)C(C)(C)C,HMSVXZJWPVIVIV-UHFFFAOYSA-N,-1.1514
"(2,5-dioxoimidazolidin-4-yl)acetic acid",,OC(=O)CC1NC(=O)NC1=O,DQQLZADYSWBCOX-UHFFFAOYSA-N,-1.1517
"7h-purine, 2,6-dichloro-7-methyl-",,Cn1cnc2nc(Cl)nc(Cl)c12,HVMUWHZAZGTMJK-UHFFFAOYSA-N,-1.1522
"2-butenedioic acid, 2-propyl-, (e)-",,CCC\C(=C/C(O)=O)C(O)=O,CCKSYUMJLIMSQK-SNAWJCMRSA-N,-1.1538
benzoxazole,,o1cnc2ccccc12,BCMCBBGGLRIHSE-UHFFFAOYSA-N,-1.1548
2-(methoxymethyl)-5-no2 furan,,COCc1oc(cc1)[N+]([O-])=O,JXUMCVDPMJWGSI-UHFFFAOYSA-N,-1.1548
"3,4,5-trihydroxybenzoic acid",,OC(=O)c1cc(O)c(O)c(O)c1,LNTHITQWFMADLM-UHFFFAOYSA-N,-1.1552
"benzeneethanol, 4-hydroxy-3-nitro-",,OCCc1ccc(O)c(c1)[N+]([O-])=O,IPWLQQBKTBBLID-UHFFFAOYSA-N,-1.1556
"1,3-divinylimidazolidin-2-one",,C=CN1CCN(C=C)C1=O,HMYBDZFSXBJDGL-UHFFFAOYSA-N,-1.155886444
"2-propanone, 1-(4,5-dihydro-2-thiazolyl)-",,CC(=O)CC1=NCCS1,WHJUKZVLAVJEJZ-UHFFFAOYSA-N,-1.156
Cilastatin,CAS82009-34-5,CC1(C)C[C@H]1C(=O)N/C(=C\CCCCSC[C@@H](N)C(=O)O)C(=O)O,DHSUYTOATWAVLW-RXOUDOFYSA-N,-1.16
"benzoic acid, 2-hydroxy-, 2-hydroxyethyl ester",,OCCOC(=O)c1ccccc1O,LVYLCBNXHHHPSB-UHFFFAOYSA-N,-1.1567
Zolmitriptan,CAS139264-17-8,CN(C)CCc1c[nH]c2ccc(C[C@H]3COC(=O)N3)cc12,ULSDMUVEXKOYBU-ZDUSSCGKSA-N,-1.16
5-allyl-5-methylbarbituric  acid;  5-allyl-5-methylbarbiturate,,CC1(CC=C)C(=O)NC(=O)NC1=O,WMSQREUDUHHDDC-UHFFFAOYSA-N,-1.16
zidovudine,,CC1=CN(C2CC(N=[N+]=[N-])C(CO)O2)C(=O)NC1=O,HBOMLICNUCNMMY-UHFFFAOYSA-N,-1.16
"dimetridazole;  1,2-dimethyl-5-nitroimidazole",,C[N]1C(=NC=C1[N+]([O-])=O)C,IBXPYPUJPLLOIN-UHFFFAOYSA-N,-1.16
3-iodocrotonic  acid (trans);  3-iodo-(e)-2-butenoic acid,,C\C(I)=C\C(O)=O,CSDFWNXJFJAWAM-IHWYPQMZSA-N,-1.16
methazolamide analog a14,,CN1N=C(SC1=N[S](=O)(=O)C(F)(F)F)[S](N)(=O)=O,TUDRWVDXIQKGIO-UHFFFAOYSA-N,-1.16
"2,2,2-Trifluoro-1-phenylethanone",,O=C(C1=CC=CC=C1)C(F)(F)F,KZJRKRQSDZGHEC-UHFFFAOYSA-N,-1.16
1-(4-methoxyphenyl)-1-methylurea,,COC1=CC=C(N(C)C(N)=O)C=C1,FMZVAQGPUASACA-UHFFFAOYSA-N,-1.16
4-[4-[(2-methylpropylamino)methyl]phenyl]sulfonylthiophene-2-sulfonamide,,CC(C)CNCC1=CC=C(S(=O)(=O)C2=CSC(S(N)(=O)=O)=C2)C=C1,VVKQXJMBVLKXJC-UHFFFAOYSA-N,-1.16
carbonyl dichloride,,ClC(Cl)=O,YGYAWVDWMABLBF-UHFFFAOYSA-N,-1.160845842
"trisodium (3Z)-7-({4-chloro-6-[ethyl({3-[2-(sulfonatooxy)ethanesulfonyl]phenyl})amino]-1,3,5-triazin-2-yl}amino)-3-[2-(4-methoxy-2-sulfonatophenyl)hydrazin-1-ylidene]-4-oxo-3,4-dihydronaphthalene-2-sulfonate",,[Na+].[Na+].[Na+].CCN(c1cccc(c1)[S](=O)(=O)CCO[S]([O-])(=O)=O)c2nc(Cl)nc(Nc3ccc4C(=O)C(=N/Nc5ccc(OC)cc5[S]([O-])(=O)=O)\C(=Cc4c3)[S]([O-])(=O)=O)n2,FTXPZBYCIGOUHZ-WPJWCKLJSA-K,-1.161671108
"1,1'-sulfinylbis(2-chloroethane)",,ClCC[S](=O)CCCl,NOMHBBFEJSVGSC-UHFFFAOYSA-N,-1.1641
"alanine, n-(aminocarbonyl)-2-methyl-",,CC(C)(NC(N)=O)C(O)=O,FMXWPTBQTITILA-UHFFFAOYSA-N,-1.1648
suberic acid,,OC(=O)CCCCCCC(O)=O,TYFQFVWCELRYAO-UHFFFAOYSA-N,-1.1673
"2,6-dimethylaniline",,Cc1cccc(C)c1N,UFFBMTHBGFGIHF-UHFFFAOYSA-N,-1.167514488
azidamfenicol,,OC[C@@H](NC(=O)CN=[N+]=[N-])[C@H](O)c1ccc(cc1)[N+]([O-])=O,SGRUZFCHLOFYHZ-MWLCHTKSSA-N,-1.1692
m-aminobenzonitrile,,Nc1cccc(c1)C#N,NJXPYZHXZZCTNI-UHFFFAOYSA-N,-1.1693
Esmolol,CAS81147-92-4,COC(=O)CCc1ccc(OCC(O)CNC(C)C)cc1,AQNDDEOPVVGCPG-UHFFFAOYSA-N,-1.17
2-hexyloxyethanol,,CCCCCCOCCO,UPGSWASWQBLSKZ-UHFFFAOYSA-N,-1.1694
3-bromofuran-2-carboxylic acid,,OC(=O)C1=C(Br)C=CO1,UZBGSJZFBUOJNE-UHFFFAOYSA-N,-1.17
picein,,CC(=O)C1=CC=C(OC2OC(CO)C(O)C(O)C2O)C=C1,GOZCEKPKECLKNO-UHFFFAOYSA-N,-1.17
2-ethyl-1-butanol,,OCC(CC)CC,TZYRSLHNPKPEFV-UHFFFAOYSA-N,-1.17
azanium; molybdenum; oxygen(-2) anion; hydrate,,[NH4+].O.[O--].[Mo],XCOMAVCHADVANQ-UHFFFAOYSA-O,-1.170241174
"1,2-dithiane-3,6-dicarboxylic acid, cis-",,OC(=O)[C@@H]1CC[C@@H](SS1)C(O)=O,NQRRVGBUZRSXRF-ZXZARUISSA-N,-1.1709
2-ethoxyphenol,,CCOc1ccccc1O,MOEFFSWKSMRFRQ-UHFFFAOYSA-N,-1.171451504
sodium; chromium(+3) cation; 3-oxido-4-(1-oxido-8-sulfonatonaphthalen-2-yl)diazenylnaphthalene-1-sulfonate,,[Na+].[Cr+3].[O-]c1cc(c2ccccc2c1N=Nc3ccc4cccc(c4c3[O-])[S]([O-])(=O)=O)[S]([O-])(=O)=O,FZEAZTGOZSYASU-UHFFFAOYSA-J,-1.171951452
trichloromethane,,ClC(Cl)Cl,HEDRZPFGACZZDS-UHFFFAOYSA-N,-1.173834312
picein,,CC(=O)c1ccc(O[C@@H]2O[C@H](CO)[C@@H](O)[C@H](O)[C@H]2O)cc1,GOZCEKPKECLKNO-RKQHYHRCSA-N,-1.174
"sodium 2-{2-[(2,6-dichlorophenyl)amino]phenyl}acetate",,[Na+].[O-]C(=O)Cc1ccccc1Nc2c(Cl)cccc2Cl,KPHWPUGNDIVLNH-UHFFFAOYSA-M,-1.174231848
oxanamide,,CCCC1OC1(CC)C(N)=O,WBLPIVIXQOFTPQ-UHFFFAOYSA-N,-1.1745
"tetrasodium 3-[(E)-2-(4-{[4-({4-[(E)-2-(4,8-disulfonatonaphthalen-2-yl)diazen-1-yl]-3-methylphenyl}amino)-6-[(2-hydroxyethyl)amino]-1,3,5-triazin-2-yl]amino}-2-methylphenyl)diazen-1-yl]naphthalene-1,5-disulfonate",,[Na+].[Na+].[Na+].[Na+].Cc1cc(Nc2nc(NCCO)nc(Nc3ccc(N=Nc4cc5c(cccc5[S]([O-])(=O)=O)c(c4)[S]([O-])(=O)=O)c(C)c3)n2)ccc1N=Nc6cc7c(cccc7[S]([O-])(=O)=O)c(c6)[S]([O-])(=O)=O,YYRIJHSNZXZKJD-UHFFFAOYSA-J,-1.174873472
2-ethyl-3-hydroxy-4H-pyran-4-one,,CCC1=C(O)C(=O)C=CO1,YIKYNHJUKRTCJL-UHFFFAOYSA-N,-1.17595802
"phosphoric acid, diethyl 2-methylpropyl ester",,CCO[P](=O)(OCC)OCC(C)C,VAUVEZMZAPNZOT-UHFFFAOYSA-N,-1.1765
1-hydroxy-1-phenylacetone,,CC(=O)C(O)c1ccccc1,ZBFFNPODXBJBPW-UHFFFAOYSA-N,-1.176603424
Enalapril,CAS75847-73-3,CCOC(=O)[C@H](CCc1ccccc1)N[C@@H](C)C(=O)N1CCC[C@H]1C(=O)O.O=C(O)/C=C\C(=O)O,OYFJQPXVCSSHAI-QFPUQLAESA-N,-1.18
N-(4-fluorophenyl)-2-hydroxy-N-propan-2-ylacetamide,,CC(C)N(C(=O)CO)c1ccc(F)cc1,RISGISSUGUGJMO-UHFFFAOYSA-N,-1.178639899
cyromazine,,Nc1nc(N)nc(NC2CC2)n1,LVQDKIWDGQRHTE-UHFFFAOYSA-N,-1.179
"1,1,1,3,3,3-hexachloroacetone",,ClC(Cl)(Cl)C(=O)C(Cl)(Cl)Cl,DOJXGHGHTWFZHK-UHFFFAOYSA-N,-1.17979792
"2-benzoyloxy-n,n-bis(2-hydroxypropyl)acetamide; n,n-bis(2-hydroxypropyl)-2-benzoyloxyacetamide",,CC(O)CN(CC(C)O)C(=O)COC(=O)C1=CC=CC=C1,LDCFNNYCIXKMNJ-UHFFFAOYSA-N,-1.18
1-[2-[(1-ethoxy-1-oxo-4-phenylbutan-2-yl)amino]propanoyl]pyrrolidine-2-carboxylic acid,,CCOC(=O)C(CCC1=CC=CC=C1)NC(C)C(=O)N1CCCC1C(=O)O,GBXSMTUPTTWBMN-UHFFFAOYSA-N,-1.18
4-amino-1-[4-fluoro-5-(hydroxymethyl)oxolan-2-yl]pyrimidin-2-one,,NC1=NC(=O)N(C2CC(F)C(CO)O2)C=C1,HNSUDSIHCJEYQG-UHFFFAOYSA-N,-1.18
"3,4-diaminobenzenesulfonic acid",,Nc1ccc(cc1N)[S](O)(=O)=O,FKSRSWQTEJTBMI-UHFFFAOYSA-N,-1.181216395
thiolane,,C1CCSC1,RAOIDOHSFRTOEL-UHFFFAOYSA-N,-1.181917475
2-hydroxy-4-methylbenzoic acid,,Cc1ccc(C(O)=O)c(O)c1,NJESAXZANHETJV-UHFFFAOYSA-N,-1.182269102
"N-(6-amino-1,3-dimethyl-2,4-dioxo-1,2,3,4-tetrahydropyrimidin-5-yl)formamide",,CN1C(=C(NC=O)C(=O)N(C)C1=O)N,ZNDGAXCBZGSJGU-UHFFFAOYSA-N,-1.183120855
"2-furancarboxylic acid, 4-bromo-",,OC(=O)c1occ(Br)c1,QALYBHRYGIXHOF-UHFFFAOYSA-N,-1.1841
Nizatidine,CAS76963-41-2,CN/C(=C\[N+](=O)[O-])NCCSCc1csc(CN(C)C)n1,SGXXNSQHWDMGGP-IZZDOVSWSA-N,-1.18
"(E)-1,2-dichloroethene",,Cl\C=C\Cl,KFUSEUYYWQURPO-OWOJBTEDSA-N,-1.187180386
"1,2-propanediol-3-(2-tolyloxy)",,Cc1ccccc1OCC(O)CO,JWDYCNIAQWPBHD-UHFFFAOYSA-N,-1.1887
1-chloro-1-nitropropane,,CCC(Cl)[N+]([O-])=O,XEKUXTMJEFPWCG-UHFFFAOYSA-N,-1.1887
1-chloro-2-nitropropane,,C[C@@H](CCl)[N+]([O-])=O,FPJNQQRSBJPGHM-VKHMYHEASA-N,-1.1887
2-methyl-N-[(2-methylprop-2-enamido)methyl]prop-2-enamide,,CC(=C)C(=O)NCNC(=O)C(C)=C,TURITJIWSQEMDB-UHFFFAOYSA-N,-1.189236756
"n1-(2-sulfamoyl-1,3,4-thiadiazol-5-yl)-n4-(glycyl)sulfanilamide",,NCC(=O)NC1=CC=C(C=C1)[S](=O)(=O)NC2=NN=C(S2)[S](N)(=O)=O,MIWUDGNQEWPLJX-UHFFFAOYSA-N,-1.19
tutin,,CC(=C)[C@@H]1[C@H]2OC(=O)[C@@H]1[C@]3(O)[C@H]4O[C@H]4[C@]5(CO5)[C@]3(C)[C@@H]2O,CCAZWUJBLXKBAY-ULZPOIKGSA-N,-1.19
2-ethoxycarbothioylsulfanylbutanedioic acid,,CCOC(=S)SC(CC(=O)O)C(=O)O,CACCMDSRNBZWGQ-UHFFFAOYSA-N,-1.19
ethyl 2-(benzoylamino)-2-methylpropanoate,,CCOC(=O)C(C)(C)NC(=O)C1=CC=CC=C1,MJXAXRPQNZPQSV-UHFFFAOYSA-N,-1.19
"2,4-dimethylphenol",,Cc1ccc(O)c(C)c1,KUFFULVDNCHOFZ-UHFFFAOYSA-N,-1.191
"1,3-benzodioxole-5-acetic acid, .alpha.-oxo-",,OC(=O)C(=O)c1ccc2OCOc2c1,VIIPQXJHKXQJKY-UHFFFAOYSA-N,-1.1912
"benzenesulfonamide, 4-(4-hydroxybutyl)-",,N[S](=O)(=O)c1ccc(CCCCO)cc1,NCRQTZXHMKBWLU-UHFFFAOYSA-N,-1.1931
helicin,,OC[C@H]1O[C@@H](Oc2ccccc2C=O)[C@H](O)[C@@H](O)[C@@H]1O,BGOFCVIGEYGEOF-UJPOAAIJSA-N,-1.1985
cytidine 3'-(dihydrogen phosphate),,NC1=NC(=O)N(C=C1)C2OC(CO[P](O)(O)=O)C(O)C2O,IERHLVCPSMICTF-UHFFFAOYSA-N,-1.198775352
"propanediamide, 2,2-diethyl-",,CCC(CC)(C(N)=O)C(N)=O,IYZYMNZTUFOYHR-UHFFFAOYSA-N,-1.1992
p-methyl benzyl alcohol,,Cc1ccc(CO)cc1,KMTDMTZBNYGUNX-UHFFFAOYSA-N,-1.1999
3-acetoxymethyl-5-fluorouracil,,CC(=O)OCN1C(=O)NC=C(F)C1=O,DUAAVZPXVWYBII-UHFFFAOYSA-N,-1.2
Dimethyl_Carbate,,C1=CC(C2)C(C(=O)OC)C(C(=O)OC)C12,VGQLNJWOULYVFV-UHFFFAOYSA-N,-1.2
"N-hydroxy-7-methyl-1,3,3~{a},4,5,6-hexahydrobenzo[de]isoquinoline-2-carboximidamide",,CC1=CC=C2CN(C(N)=NO)CC3CCCC1=C23,FGFHFHXVPZXINJ-UHFFFAOYSA-N,-1.2
"phosphinic acid, dibutyl-, ethyl ester",,CCCC[P](=O)(CCCC)OCC,ODVIGXMRBJCIPC-UHFFFAOYSA-N,-1.2005
4-hydroxy-2-methylquinoline,,CC1=CC(=O)c2ccccc2N1,NWINIEGDLHHNLH-UHFFFAOYSA-N,-1.2019
dimethyl carbate,,COC(=O)[C@@H]1C2CC(C=C2)[C@@H]1C(=O)OC,VGQLNJWOULYVFV-WZENYGAOSA-N,-1.202
Moxifloxacin Hydrochloride,CAS186826-86-8,COc1c(N2C[C@@H]3CCCN[C@@H]3C2)c(F)cc2c(=O)c(C(=O)O)cn(C3CC3)c12.Cl,IDIIJJHBXUESQI-DFIJPDEKSA-N,-1.2
Sunitinib Malate,CAS341031-54-7,CCN(CC)CCNC(=O)c1c(C)[nH]c(/C=C2\C(=O)Nc3ccc(F)cc32)c1C.O=C(O)C[C@H](O)C(=O)O,LBWFXVZLPYTWQI-IPOVEDGCSA-N,-1.2
"butanoic acid, 4-(benzoylamino)-",,OC(=O)CCCNC(=O)c1ccccc1,BOZHPKGNNJPZKV-UHFFFAOYSA-N,-1.2025
Terazosin,CAS63590-64-7,COc1cc2nc(N3CCN(C(=O)C4CCCO4)CC3)nc(N)c2cc1OC,VCKUSRYTPJJLNI-UHFFFAOYSA-N,-1.2
2-hexenedioic acid,,OC(=O)CCC=CC(O)=O,HSBSUGYTMJWPAX-UHFFFAOYSA-N,-1.2045
sodium 3-[(E)-2-[4-(phenylamino)phenyl]diazen-1-yl]benzene-1-sulfonate,,[Na+].[O-][S](=O)(=O)c1cccc(c1)N=Nc2ccc(Nc3ccccc3)cc2,NYGZLYXAPMMJTE-UHFFFAOYSA-M,-1.204686091
amyl lactate,,CCCCCOC(=O)C(C)O,GXOHBWLPQHTYPF-UHFFFAOYSA-N,-1.2047
3-aminobenzenesulfonic acid,,Nc1cccc(c1)[S](O)(=O)=O,ZAJAQTYSTDTMCU-UHFFFAOYSA-N,-1.20510658
glyphosphate,,OC(=O)CNC[P](O)(O)=O,XDDAORKBJWWYJS-UHFFFAOYSA-N,-1.2069
"2,6-dihydroxybenzoic acid",,OC(=O)c1c(O)cccc1O,AKEUNCKRJATALU-UHFFFAOYSA-N,-1.2074
"2,2-dibromo-2-cyanoacetamide",,NC(=O)C(Br)(Br)C#N,UUIVKBHZENILKB-UHFFFAOYSA-N,-1.2075
"1h-purine-2,6-dione, 3,7-dihydro-3,7-dimethyl-1-",,CCCN1C(=O)N(C)c2ncn(C)c2C1=O,XJKSERUTELYNMR-UHFFFAOYSA-N,-1.2082
Chlormethiazole; Clomethiazole,CAS1867-58-9,Cc1ncsc1CCCl.Cc1ncsc1CCCl.O=S(=O)(O)CCS(=O)(=O)O,WFVBVWRCFZCWJU-UHFFFAOYSA-N,-1.21
benzaldehyde,,O=Cc1ccccc1,HUMNYLRZRPPJDN-UHFFFAOYSA-N,-1.209572311
"potassium sodium 7-{3-[(E)-2-{4-[(E)-2-(2-hydroxynaphthalen-1-yl)diazen-1-yl]phenyl}diazen-1-yl]benzenesulfonamido}naphthalene-1,3-disulfonate",,[Na+].[K+].Oc1ccc2ccccc2c1N=Nc3ccc(cc3)N=Nc4cccc(c4)[S](=O)(=O)Nc5ccc6cc(cc(c6c5)[S]([O-])(=O)=O)[S]([O-])(=O)=O,UFYJXIFCPOCDND-UHFFFAOYSA-L,-1.209646244
1h-purin-2-amine,,Nc1ncc2[nH]cnc2n1,MWBWWFOAEOYUST-UHFFFAOYSA-N,-1.21
methomyl,,CNC(=O)O\N=C(\C)SC,UHXUZOCRWCRNSJ-DAXSKMNVSA-N,-1.21
indole,,[NH]1C=CC2=C1C=CC=C2,SIKJAQJRHWYJAI-UHFFFAOYSA-N,-1.21
n-[(2-methylamino)acetyl]dorzolamide,,CCN(C1CC(C)[S](=O)(=O)C2=C1C=C(S2)[S](N)(=O)=O)C(=O)CNC,AEDNMSDIHOZVTQ-UHFFFAOYSA-N,-1.21
"acetazolamide  analog c 13; 5-pentafluorobenzenesulfonylamino-1,3,4-thiadiazole-2-sulfonamide",,N[S](=O)(=O)C1=NN=C(N[S](=O)(=O)C2=C(F)C(=C(F)C(=C2F)F)F)S1,SNVIUSFXXHRDCP-UHFFFAOYSA-N,-1.21
4-hydroxy-5-methoxyphthalic acid,,COC1=CC(C(=O)O)=C(C(=O)O)C=C1O,OFECJXVRRIHUSC-UHFFFAOYSA-N,-1.21
"N-hydroxy-5-methoxy-1,3-dihydrobenzo[de]isoquinoline-2-carboximidamide",,COC1=CC2=C3C(=C1)C=CC=C3CN(C(N)=NO)C2,VBFINEQLTLSUPP-UHFFFAOYSA-N,-1.21
2-(2-methyl-5-nitroimidazol-1-yl)ethanol,,CC1=NC=C(N1CCO)[N+](=O)[O-],VAOCPAMSLUNLGC-UHFFFAOYSA-N,-1.21
"3-isopentyloxy-propane-1,2-diol",,CC(C)CCOCC(O)CO,AIOHBDYXYKMBIF-UHFFFAOYSA-N,-1.2101
3-bromo-2-iodo-acrylic acid,,OC(=O)C(I)=CBr,QCXZPFMTVRXKMN-UHFFFAOYSA-N,-1.2118
trisodium; chromium(+3) cation; 4-(3-methyl-5-oxido-1-phenylpyrazol-4-yl)diazenyl-3-oxidonaphthalene-1-sulfonate,,[Na+].[Na+].[Na+].[Cr+3].Cc1nn(c([O-])c1N=Nc2c([O-])cc(c3ccccc23)[S]([O-])(=O)=O)c4ccccc4.Cc5nn(c([O-])c5N=Nc6c([O-])cc(c7ccccc67)[S]([O-])(=O)=O)c8ccccc8,OTFBCUKLFXRMQQ-UHFFFAOYSA-H,-1.212102898
"propanoic acid, 3-methoxy-, butyl ester",,CCCCOC(=O)CCOC,RRIRSNXZGJWTQM-UHFFFAOYSA-N,-1.2135
iodomethane,,CI,INQOMBQAUSQDDS-UHFFFAOYSA-N,-1.214583849
di-tert-butylsulfone,,CC(C)(C)[S](=O)(=O)C(C)(C)C,SPJQDMKTFSPPLO-UHFFFAOYSA-N,-1.2177
"diethyl pyridine-2,4-dicarboxylate",,CCOC(=O)c1ccnc(c1)C(=O)OCC,MUUDQLHCIAOWPR-UHFFFAOYSA-N,-1.2184149
(2E)-but-2-enedioic acid,,OC(=O)\C=C\C(O)=O,VZCYOOQTPOCHFL-OWOJBTEDSA-N,-1.219629428
butyl acetate,,CCCCOC(C)=O,DKPFZGUDAPQIHT-UHFFFAOYSA-N,-1.219958563
n-hydroxymethyl-4-methoxybenzamide,,COC1=CC=C(C=C1)C(=O)NCO,UFEJBJDMZBIZLV-UHFFFAOYSA-N,-1.22
cephradine,,CC1=C(N2C(SC1)C(NC(=O)C(N)C3=CCC=CC3)C2=O)C(O)=O,RDLPVSKMFDYCOR-UHFFFAOYSA-N,-1.22
"2-sulfamoyl-5-(4'-tolyl)sulfonamido-1,3,4-thiadiazole; 5-(4-methylbenzenesulfonylamino)-1,3,4-thiadiazole-2-sulfonamide",,CC1=CC=C(C=C1)[S](=O)(=O)NC2=NN=C(S2)[S](N)(=O)=O,FNICBGZPBTURDA-UHFFFAOYSA-N,-1.22
1-(4-chloronaphthalen-1-yl)-2-dimethylaminoethanol,,CN(C)CC(O)C1=C2C=CC=CC2=C(Cl)C=C1,XLDAMPBKFZDRSB-UHFFFAOYSA-N,-1.22