Name,ID,SMILES,inchi,LogS
demeton,,CCO[P](=O)(OCC)SCCSCC.CCO[P](=S)(OCC)OCCSCC,FAXIJTUDSBIMHY-UHFFFAOYSA-N,-3.9351
"N,N-dimethyltetradecan-1-amine",,CCCCCCCCCCCCCCN(C)C,SFBHPFQSSDCYSL-UHFFFAOYSA-N,-3.935692561
Latanoprost,CAS130209-82-4,CC(C)OC(=O)CCC/C=C\C[C@H]1[C@@H](O)C[C@@H](O)[C@@H]1CC[C@@H](O)CCc1ccccc1,GGXICVAJURFBLW-CEYXHVGTSA-N,-3.94
2-[2-(benzoyloxy)ethoxy]ethyl benzoate,,O=C(OCCOCCOC(=O)c1ccccc1)c2ccccc2,NXQMCAOPTPLPRL-UHFFFAOYSA-N,-3.937488879
Finasteride,CAS98319-26-7,CC(C)(C)NC(=O)[C@H]1CC[C@H]2[C@@H]3CC[C@H]4NC(=O)C=C[C@]4(C)[C@H]3CC[C@]12C,DBEPLOCGEIEOCV-WSBQPABSSA-N,-3.94
"2,3,4-trichloronitrobenzene",,[O-][N+](=O)c1ccc(Cl)c(Cl)c1Cl,BGKIECJVXXHLDP-UHFFFAOYSA-N,-3.94
hexachloroethane,,ClC(Cl)(Cl)C(Cl)(Cl)Cl,VHHHONWQHHHLTI-UHFFFAOYSA-N,-3.94
5-ethyl-5-octylbarbituric  acid,,CCCCCCCCC1(CC)C(=O)NC(=O)NC1=O,NTYYDJWPKCQQIB-UHFFFAOYSA-N,-3.94
n1-(4-nitrophenyl)sulfanilamide,,NC1=CC=C(C=C1)[S](=O)(=O)NC2=CC=C(C=C2)[N+]([O-])=O,ACJNABKXDUDYAM-UHFFFAOYSA-N,-3.94
"9-methyl-3,7-dihydropurine-2,6,8-trione",,CN1C(=O)NC2=C1NC(=O)NC2=O,XJEJWDFDVPDMAS-UHFFFAOYSA-N,-3.94
"1-[(2,4-dichlorophenyl)methyl]-5-fluoropyrimidine-2,4-dione",,O=C1NC(=O)N(CC2=C(Cl)C=C(Cl)C=C2)C=C1F,MHPNFFUAVWCYBQ-UHFFFAOYSA-N,-3.94
"butanoic acid, 4-nitrophenyl ester",,CCCC(=O)Oc1ccc(cc1)[N+]([O-])=O,DVDUMIQZEUTAGK-UHFFFAOYSA-N,-3.9404
"benzenesulfonic acid, 4-methyl-, 2-methylphenyl",,Cc1ccc(cc1)[S](=O)(=O)Oc2ccccc2C,WBKWVLAHWVFXKM-UHFFFAOYSA-N,-3.9417
metiazinic acid,,CN1c2ccccc2Sc3ccc(CC(O)=O)cc13,LMINNBXUMGNKMM-UHFFFAOYSA-N,-3.9422
"1-naphthalenecarboxamide, n-hydroxy-n-phenyl-",,ON(c1ccccc1)C(=O)c2cccc3ccccc23,MDPNINYZZKJMBC-UHFFFAOYSA-N,-3.9433
strontium 4-[(4-chloro-5-methyl-2-sulphonatophenyl)azo]-3-hydroxy-2-naphthoate (1:1),,[Sr++].Cc1cc(N\N=C/2C(=O)C(=Cc3ccccc23)C([O-])=O)c(cc1Cl)[S]([O-])(=O)=O,ZZUKBDPLHIIUFR-JEBHESKQSA-L,-3.944100371
hexane,,CCCCCC,VLKZOEOYAKHREP-UHFFFAOYSA-N,-3.944170335
benalaxyl,,COC(=O)C(C)N(C(=O)Cc1ccccc1)c2c(C)cccc2C,CJPQIRJHIZUAQP-UHFFFAOYSA-N,-3.9442
doxepin,,CN(C)CC\C=C1/c2ccccc2COc3ccccc13,ODQWQRRAPPTVAG-GZTJUZNOSA-N,-3.9469
bufencarb,,CCCC(C)c1cccc(OC(=O)NC)c1.CCC(CC)c2cccc(OC(=O)NC)c2,MYTVVMGUDBRCDJ-UHFFFAOYSA-N,-3.947
hexyl p-hydroxybenzoate,,CCCCCCOC(=O)c1ccc(O)cc1,ULULAZKOCFNOIM-UHFFFAOYSA-N,-3.949
kni-272;  kynostatin,,CSCC(NC(=O)COC1=CC=CC2=C1C=CN=C2)C(=O)NC(CC3=CC=CC=C3)C(O)C(=O)N4CSCC4C(=O)NC(C)(C)C,NJBBLOIWMSYVCQ-UHFFFAOYSA-N,-3.95
deoxycholic_acid,,O=C(O)CCC(C(C(C(C(C(C(C(C1)CC(O)C2)(C2)C)C3)C1)C4)(C3O)C)C4)C,KXGVEGMKQFWNSR-UHFFFAOYSA-N,-3.95
hexyl-4-aminobenzoate,,CCCCCCOC(=O)c1ccc(N)cc1,UWIGKXXCHKVGHW-UHFFFAOYSA-N,-3.95
Pentyl 3-chloro-4-hydroxybenzoate,,CCCCCOC(=O)C1=CC(Cl)=C(O)C=C1,RNGWSERDYBOYRH-UHFFFAOYSA-N,-3.95
2-nitro-3-phenylphenol,,C1=CC=C(C=C1)C2=C(C(=CC=C2)O)[N+](=O)[O-],DRGIJTNVBHIOFB-UHFFFAOYSA-N,-3.95
N-(furan-2-ylmethyl)-7H-purin-6-amine,,C1=COC(CNC2=NC=NC3=C2N=CN3)=C1,QANMHLXAZMSUEX-UHFFFAOYSA-N,-3.95
4-phenyldiazenylphenol,,OC1=CC=C(N=NC2=CC=CC=C2)C=C1,BEYOBVMPDRKTNR-UHFFFAOYSA-N,-3.95
17-methyltestosterone,,C[C@]1(O)CC[C@H]2[C@@H]3CCC4=CC(=O)CC[C@]4(C)[C@H]3CC[C@]12C,GCKMFJBGXUYNAG-HLXURNFRSA-N,-3.9505
1-chloro-3-isothiocyanato-benzene,,Clc1cccc(c1)N=C=S,WGXCKFMVBAOIFH-UHFFFAOYSA-N,-3.9507
Rosiglitazone Maleate,CAS155141-29-0,CN(CCOc1ccc(/C=C2/SC(=O)NC2=O)cc1)c1ccccn1,HCDYSWMAMRPMST-NTCAYCPXSA-N,-3.95
"methyl 2-[(4-amino-3,5-dichloro-6-fluoropyridin-2-yl)oxy]acetate",,COC(=O)COc1nc(F)c(Cl)c(N)c1Cl,GIIKFBXVGYJLEK-UHFFFAOYSA-N,-3.951281028
2-(2-phenylphenoxy)ethyl prop-2-enoate,,C=CC(=O)OCCOc1ccccc1c2ccccc2,VAZQKPWSBFZARZ-UHFFFAOYSA-N,-3.951518842
triadimenol (diastereoisomer b),,CC(C)(C)[C@H](O)[C@H](Oc1ccc(Cl)cc1)n2cncn2,BAZVSMNPJJMILC-OLZOCXBDSA-N,-3.9524
"phenol,2,2'-methylenebis 4-chloro-",,Oc1ccc(Cl)cc1Cc2cc(Cl)ccc2O,MDNWOSOZYLHTCG-UHFFFAOYSA-N,-3.9528
1-benzyl-N-phenylpiperidin-4-amine,,C1CN(CCC1Nc2ccccc2)Cc3ccccc3,FSXGJIFBTBJMHV-UHFFFAOYSA-N,-3.954222946
deoxycholic acid,,C[C@H](CCC(O)=O)[C@H]1CC[C@H]2[C@@H]3CC[C@@H]4C[C@H](O)CC[C@]4(C)[C@H]3C[C@H](O)[C@]12C,KXGVEGMKQFWNSR-LLQZFEROSA-N,-3.9544
norflurazon,,CNC1=C(Cl)C(=O)N(N=C1)c2cccc(c2)C(F)(F)F,NVGOPFQZYCNLDU-UHFFFAOYSA-N,-3.9548
proscillaridin,,CC1OC(O[C@H]2CC[C@]3(C)[C@H]4CC[C@]5(C)[C@H](CC[C@]5(O)[C@@H]4CCC3=C2)C6=COC(=O)C=C6)C(O)C(O)C1O,MYEJFUXQJGHEQK-OWBILYANSA-N,-3.955
"(Z)-N-9-octadecenylpropane-1,3-diamine",,CCCCCCCC\C=C/CCCCCCCCNCCCN,TUFJPPAQOXUHRI-KTKRTIGZSA-N,-3.955042001
"ethyl phenyl(2,4,6-trimethylbenzoyl)phosphinate",,CCO[P](=O)(C(=O)c1c(C)cc(C)cc1C)c2ccccc2,ZMDDERVSCYEKPQ-UHFFFAOYSA-N,-3.956081947
,CHEMBL2164396,FC(F)(F)CCOc1ccc(CNC(=O)C2N(CCc3ccccn3)C(=O)c4ccccc24)cn1,CLTDPAFURBFXKB-UHFFFAOYSA-N,-3.958340298
1-[3-(2-oxoazepane-1-carbonyl)benzoyl]azepan-2-one,,O=C1CCCCCN1C(=O)c2cccc(c2)C(=O)N3CCCCCC3=O,HXZRLUTUNSQNCG-UHFFFAOYSA-N,-3.958346195
"propanoic acid, 2-methyl-, 4-nitrophenyl ester",,CC(C)C(=O)Oc1ccc(cc1)[N+]([O-])=O,AIKAOGTVMFOQKJ-UHFFFAOYSA-N,-3.9588
"8-quinolinol, 2-methyl-5-nitro-",,Cc1ccc2c(ccc(O)c2n1)[N+]([O-])=O,XYPACLZTPMHPLB-UHFFFAOYSA-N,-3.9598
diphenyl_ether,,c1ccccc1Oc2ccccc2,USIUVYZYUHIAEV-UHFFFAOYSA-N,-3.96
"6-methoxy-3,3,12-trimethylchromeno[5,6-b][1,8]naphthyridin-7-one",,COC1=CC2=C(C=CC(C)(C)O2)C2=C1C(=O)C1=C(N=CC=C1)N2C,ZATMUICSCHNCFK-UHFFFAOYSA-N,-3.96
"3,3-diethyl-1-(hydroxymethyl)piperidine-2,6-dione",,CCC1(CC)CCC(=O)N(CO)C1=O,VTHAGPOYEBHLQJ-UHFFFAOYSA-N,-3.96
"N-(3-bromophenyl)-1H-pyrimido[5,6-f]indazol-5-amine",,BrC1=CC=CC(NC2=NC=NC3=CC4=C(C=NN4)C=C32)=C1,ORCWMSOZENFEDR-UHFFFAOYSA-N,-3.96
4-iodobenzoic acid,,OC(=O)c1ccc(I)cc1,GHICCUXQJBDNRN-UHFFFAOYSA-N,-3.9631
thiobencarb,,CCN(CC)C(=O)SCc1ccc(Cl)cc1,QHTQREMOGMZHJV-UHFFFAOYSA-N,-3.9641
"1,2-cyclohexanedione, 4-tert-pentyl-, dioxime",,CCC(C)(C)C1CCC(=NO)C(C1)=NO,LKKSDAFFSSAZMV-UHFFFAOYSA-N,-3.9652
Amphotericin B,CAS1397-89-3,C[C@@H]1OC(=O)C[C@H](O)C[C@H](O)CC[C@@H](O)[C@H](O)C[C@H](O)C[C@]2(O)C[C@H](O)[C@@H](C(=O)O)[C@H](C[C@@H](O[C@@H]3O[C@H](C)[C@@H](O)[C@H](N)[C@@H]3O)/C=C/C=C/C=C/C=C/C=C/C=C/C=C/[C@H](C)[C@@H](O)[C@H]1C)O2,APKFDSVGJQXUKY-INPOYWNPSA-N,-3.97
,CHEMBL1209513,Fc1ccccc1S(=O)(=O)NCC(N2CCCCCC2)c3ccccc3,RIJRVRRWJOPWIC-UHFFFAOYSA-N,-3.966197809
"1,10-phenanthroline, 4,7-dimethyl-",,Cc1ccnc2c1ccc3c(C)ccnc23,JIVLDFFWTQYGSR-UHFFFAOYSA-N,-3.9686
"ethyl N,N-diphenylcarbamate",,CCOC(=O)N(c1ccccc1)c2ccccc2,HKTSLDUAGCAISP-UHFFFAOYSA-N,-3.969239559
griseofulvin,,COC1=CC(=C2C(=O)C3(OC2=C1Cl)C(C)CC(=O)C=C3OC)OC,DDUHZTYCFQRHIY-UHFFFAOYSA-N,-3.97
2-amino-4(1h)-pteridinone;  2-amino-4-hydroxypteridine,,NC1=NC(=O)C2=C(N1)N=CC=N2,HNXQXTQTPAJEJL-UHFFFAOYSA-N,-3.97
nicosulfuron,,COC1=NC(=NC(=C1)OC)NC(=O)N[S](=O)(=O)C2=NC=CC=C2C(=O)N(C)C,RTCOGUMHFFWOJV-UHFFFAOYSA-N,-3.97
17-Methyl testosterone  ,,CC12CCC(=O)C=C1CCC1C2CCC2(C)C1CCC2(C)O,GCKMFJBGXUYNAG-UHFFFAOYSA-N,-3.97
1-chloronaphthalene,,Clc1cccc2ccccc12,JTPNRXUCIXHOKM-UHFFFAOYSA-N,-3.9706
"1,3-diphenylthiourea",,S=C(Nc1ccccc1)Nc2ccccc2,FCSHMCFRCYZTRQ-UHFFFAOYSA-N,-3.971688427
"1,3-propanediol, 2-nitro-1-phenyl-, diacetate (e",,CC(=O)OCC(C(OC(C)=O)c1ccccc1)[N+]([O-])=O,AYBALPYBYZFKDS-UHFFFAOYSA-N,-3.972
fenitropan,,CC(=O)OC[C@H]([C@@H](OC(C)=O)c1ccccc1)[N+]([O-])=O,AYBALPYBYZFKDS-OLZOCXBDSA-N,-3.972
"(3E)-3,7-dimethylocta-1,3,6-triene",,CC(C)=CC\C=C(/C)C=C,IHPKGUQCSIINRJ-CSKARUKUSA-N,-3.972930257
"(1R,2S,5R)-5-methyl-2-(propan-2-yl)cyclohexyl acetate",,CC(C)[C@@H]1CC[C@@H](C)C[C@H]1OC(C)=O,XHXUANMFYXWVNG-ADEWGFFLSA-N,-3.97511656
"8-quinolinol,5-chloro-",,Oc1ccc(Cl)c2cccnc12,CTQMJYWDVABFRZ-UHFFFAOYSA-N,-3.9756
acenaphthylene,,c1cc2cccc3C=Cc(c1)c23,HXGDTGSAIMULJN-UHFFFAOYSA-N,-3.9756
"3-(1-ethoxyethoxy)-3,7-dimethylocta-1,6-diene",,CCOC(C)OC(C)(CCC=C(C)C)C=C,ZJPKYCLAROITRY-UHFFFAOYSA-N,-3.976401784
"propanamide, 2-hydroxy-n-tetradecyl-",,CCCCCCCCCCCCCCNC(=O)C(C)O,BPSSWVRROCFULD-UHFFFAOYSA-N,-3.9784
flurtamone,,CNC1=C(C(=O)C(O1)c2ccccc2)c3cccc(c3)C(F)(F)F,NYRMIJKDBAQCHC-UHFFFAOYSA-N,-3.9788
tetralead trioxide sulphate,,[Pb++].[O-][S]([O-])(=O)=O.O=[Pb].O=[Pb].O=[Pb],ULGNLQBHIXGZMQ-UHFFFAOYSA-L,-3.979450176
4-isothiocyanatobenzoic acid,,OC(=O)C1=CC=C(C=C1)N=C=S,RBEFRYQKJYMLCC-UHFFFAOYSA-N,-3.98
n1-(5-chloro-2-methylphenyl)sulfanilamide;  5-chloro-2-methylsulfabenzene,,CC1=C(N[S](=O)(=O)C2=CC=C(N)C=C2)C=C(Cl)C=C1,PGWAMIHTVMBZDQ-UHFFFAOYSA-N,-3.98
4-nitrophenyl-kni-727,,CC(C)(C)NC(=O)C1N(CSC1(C)C)C(=O)C(O)C(CC2=CC=CC=C2)NC(=O)C3=CC=C(C=C3)[N+]([O-])=O,JQTIFLNFYNBCAF-UHFFFAOYSA-N,-3.98
"l-365,209 -analog 11;  (cyclic hexapeptide)",,CCC(C)C1NC(=O)C(CC2=CC3=C(C=CC=C3)C=C2)NC(=O)C4CCCN4C(=O)C(CC5=C[NH]C=N5)NC(=O)C6CCCCN6C(=O)C7CCCCN7C1=O,ILLSOIRJMQNTIA-UHFFFAOYSA-N,-3.98
Pericyazine,,c1ccc2Sc3ccc(C(#N))cc3N(CCCN4CCC(O)CC4)c2c1,LUALIOATIOESLM-UHFFFAOYSA-N,-3.98
"(6-hydroxy-2,3,3a,5,6,6a-hexahydrofuro[2,3-d]furan-3-yl) 2-(6-methoxynaphthalen-2-yl)propanoate",,COC1=CC2=C(C=C1)C=C(C(C)C(=O)OC1COC3C(O)COC13)C=C2,ISGRRYXIEFPBFN-UHFFFAOYSA-N,-3.98
"5-amino-7-(3-amino-2-methylazetidin-1-yl)-1-cyclopropyl-6,8-difluoro-4-oxoquinoline-3-carboxylic acid",,CC1C(N)CN1C1=C(F)C2=C(C(=O)C(C(=O)O)=CN2C2CC2)C(N)=C1F,KCDGHRIKVMOLKL-UHFFFAOYSA-N,-3.98
verapamil,,COc1ccc(CCN(C)CCCC(C#N)(C(C)C)c2ccc(OC)c(OC)c2)cc1OC,SGTNSNPWRIOYBX-UHFFFAOYSA-N,-3.98
"2,6-dichlorobenzonitrile",,Clc1cccc(Cl)c1C#N,YOYAIZYFCNQIRF-UHFFFAOYSA-N,-3.9803
pentamethylbenzene,,Cc1cc(C)c(C)c(C)c1C,BEZDDPMMPIDMGJ-UHFFFAOYSA-N,-3.9807
Saquinavir Methanesulfonate,PubChemCID86618032,CC(C)(C)NC(=O)C1CC2CCCCC2CN1CC(C(CC3=CC=CC=C3)NC(=O)C(CC(=O)N)NC(=O)C4=NC5=CC=CC=C5C=C4)O.CS(=O)(=O)[O-],IRHXGOXEBNJUSN-UHFFFAOYSA-M,-3.98
flamprop-methyl,,COC(=O)C(C)N(C(=O)c1ccccc1)c2ccc(F)c(Cl)c2,RBNIGDFIUWJJEV-UHFFFAOYSA-N,-3.982
Losartan Potassium,CAS124750-99-8,CCCCc1nc(Cl)c(CO)n1Cc1ccc(-c2ccccc2-c2nnnn2[K])cc1,OXCMYAYHXIHQOA-UHFFFAOYSA-N,-3.98
,CHEMBL1631011,COc1ccc2CN(Cc2c1)C(=O)c3cc(ccc3O[C@@H](C)C(F)(F)F)S(=O)(=O)C,JTOKNMGNPHJFLY-LBPRGKRZSA-N,-3.983745318
terbutryn,,CCNc1nc(NC(C)(C)C)nc(SC)n1,IROINLKCQGIITA-UHFFFAOYSA-N,-3.9847
"3,7,11-trimethyldodeca-1,6,10-trien-3-ol,mixed isomers",,CC(C)=CCC\C(C)=C\CCC(C)(O)C=C,FQTLCLSUCSAZDY-SDNWHVSQSA-N,-3.985352266
(2-phenoxyethoxy)benzene,,C(COc1ccccc1)Oc2ccccc2,XCSGHNKDXGYELG-UHFFFAOYSA-N,-3.988526528
"5-(2-methylundecan-2-yldisulfanyl)-3H-1,3,4-thiadiazole-2-thione",,CCCCCCCCCC(C)(C)SSC1=NNC(=S)S1,UGMGEYBGNHXQQO-UHFFFAOYSA-N,-3.988563911
cyclododecanol,,OC1CCCCCCCCCCC1,SFVWPXMPRCIVOK-UHFFFAOYSA-N,-3.989117726
"3,5,5-trimethylhexyl acetate",,CC(CCOC(C)=O)CC(C)(C)C,DGKXDLCVQSQVBC-UHFFFAOYSA-N,-3.989167832
decylpropanedioic acid,,CCCCCCCCCCC(C(O)=O)C(O)=O,HCUZVMHXDRSBKX-UHFFFAOYSA-N,-3.99
phenytoin,,O=C1NC(=O)C(N1)(c2ccccc2)c3ccccc3,CXOFVDLJLONNDW-UHFFFAOYSA-N,-3.99
2-methyloctane-2-thiol,,CCCCCCC(C)(C)S,MPBLPZLNKKGCGP-UHFFFAOYSA-N,-3.990160109
"(1E)-1-(2,6,6-trimethylcyclohex-1-en-1-yl)pent-1-en-3-one; (1E)-1-(2,6,6-trimethylcyclohex-2-en-1-yl)pent-1-en-3-one; (3E)-3-methyl-4-(2,6,6-trimethylcyclohex-1-en-1-yl)but-3-en-2-one; (3E)-3-methyl-4-(2,6,6-trimethylcyclohex-2-en-1-yl)but-3-en-2-one",,CCC(=O)/C=C/C1C(=CCCC1(C)C)C,VPKMGDRERYMTJX-CMDGGOBGSA-N,-3.992340979
"(3E)-3-methyl-4-(2,6,6-trimethylcyclohex-2-en-1-yl)but-3-en-2-one",,CC(=O)C(\C)=C/C1C(=CCCC1(C)C)C,JRJBVWJSTHECJK-LUAWRHEFSA-N,-3.992340979
2-(2-{[(2R)-2-ethylhexyl]oxy}ethoxy)ethyl prop-2-enoate 2-(2-{[(2S)-2-ethylhexyl]oxy}ethoxy)ethyl prop-2-enoate,,CCCC[C@H](CC)COCCOCCOC(=O)C=C.CCCC[C@@H](CC)COCCOCCOC(=O)C=C,AAOLSIAQZZQQCI-IKFJUQJOSA-N,-3.994274106
magnesium(2+) ion dimethanolate,,[Mg++].C[O-].C[O-],CRGZYKWWYNQGEC-UHFFFAOYSA-N,-3.994369951
1-chloroheptane,,CCCCCCCCl,DZMDPHNGKBEVRE-UHFFFAOYSA-N,-3.9957
4-{1-[4-hydroxy-3-(prop-2-en-1-yl)phenyl]propyl}-2-(prop-2-en-1-yl)phenol,,CC(C)(c1ccc(O)c(CC=C)c1)c2ccc(O)c(CC=C)c2,WOCGGVRGNIEDSZ-UHFFFAOYSA-N,-3.996383552
Oxatomide,CAS60607-34-3,O=c1[nH]c2ccccc2n1CCCN1CCN(C(c2ccccc2)c2ccccc2)CC1,BAINIUMDFURPJM-UHFFFAOYSA-N,-4
,CHEMBL1682810,CN1CCOc2nc(ccc12)C#Cc3ccccc3,YAJOQWSFSHQIJQ-UHFFFAOYSA-N,-3.999671271
,CHEMBL1682827,O=C1CCOc2nc(COc3ccccc3)ccc12,RDTNMKBRGQQHLS-UHFFFAOYSA-N,-3.999692878
"2-benzyl-3-methyl-2,3-dihydro-1h-imidazo[5,1b]quinazolin-9-one; 2-benzyl-3-methylimidazoquinazolone",,CC1N(CN2C(=O)C3=C(C=CC=C3)N=C12)CC4=CC=CC=C4,PAEHEULFAIRJNM-UHFFFAOYSA-N,-4
methotrexate,,CN(CC1=NC2=C(N=C1)N=C(N)N=C2N)C3=CC=C(C=C3)C(=O)NC(CCC(O)=O)C(O)=O,FBOZXECLQNJBKD-UHFFFAOYSA-N,-4
4-[2-(4-chlorphenylsulfonylureido)pyrimidin-4-ylamino]benzenesulfonamide,,N[S](=O)(=O)C1=CC=C(NC2=CC=NC(=N2)NC(=O)N[S](=O)(=O)C3=CC=C(Cl)C=C3)C=C1,YPWVSRAMWAPSDL-UHFFFAOYSA-N,-4
lasinavir,,COCCNC(=O)C(NC(=O)C(CC(O)C(CC1=CC=CC=C1)NC(=O)OC(C)(C)C)CC2=CC(=C(OC)C(=C2)OC)OC)C(C)C,BQXKPLXLMDOCBL-UHFFFAOYSA-N,-4
7-diethylamino-4-methylchromen-2-one,,CCN(CC)C1=CC2=C(C=C1)C(C)=CC(=O)O2,AFYCEAFSNDLKSX-UHFFFAOYSA-N,-4
2-(Ethylamino)-2-oxoethyl benzoate,,CC1=CC(=O)N(O)C2=C1C1=C(C=CC=C1)C=C2,VEGOTYLRTWVOFW-UHFFFAOYSA-N,-4
"N-hydroxy-4-methyl-2,2-bis(2-methylpropyl)pentanamide",,CC(C)CC(CC(C)C)(CC(C)C)C(=O)NO,BTQMNEKPMOZIDW-UHFFFAOYSA-N,-4
"13-methyl-6,7,8,9,11,12,14,15,16,17-decahydrocyclopenta[a]phenanthrene-3,16,17-triol",,CC12CCC3C4=C(C=C(O)C=C4)CCC3C1CC(O)C2O,PROQIPRRNZUXQM-UHFFFAOYSA-N,-4
6-fluoro-2-(5-nitrofuran-2-yl)-1H-benzimidazole,,C1=CC2=C(C=C1F)NC(=N2)C3=CC=C(O3)[N+](=O)[O-],YKCVVHOLBKXNPV-UHFFFAOYSA-N,-4
"phosphonic acid, [[4-(2-benzothiazolyl)phenyl]me",,CCO[P](=O)(Cc1ccc(cc1)c2sc3ccccc3n2)OCC,FVYRUSCZCWSFLT-UHFFFAOYSA-N,-4.0017
"carbamic acid, (3,4-diethoxyphenyl)-, 1-methylet",,CCOc1ccc(NC(=O)OC(C)C)cc1OCC,LNJNFVJKDJYTEU-UHFFFAOYSA-N,-4.0022
1-(methoxymethyl)-4-[4-(methoxymethyl)phenyl]benzene,,COCc1ccc(cc1)c2ccc(COC)cc2,MODAACUAXYPNJH-UHFFFAOYSA-N,-4.002368633
"1,2,3-trichlorobenzene",,Clc1cccc(Cl)c1Cl,RELMFMZEBKVZJC-UHFFFAOYSA-N,-4.003482074
Mycophenolate Mofetil,CAS115007-34-6,COc1c(C)c2c(c(O)c1C/C=C(\C)CCC(=O)OCCN1CCOCC1)C(=O)OC2,RTGDFNSFWBGLEC-SYZQJQIISA-N,-4
"6,10-dimethylundecan-2-one",,CC(C)CCCC(C)CCCC(C)=O,RBGLEUBCAJNCTR-UHFFFAOYSA-N,-4.005176134
thiodicarb,,CSC(/C)=N/OC(=O)N(C)SN(C)C(=O)O\N=C(/C)SC,XDOTVMNBCQVZKG-MKICQXMISA-N,-4.0055
Haloperidol,CAS52-86-8,O=C(CCCN1CCC(O)(c2ccc(Cl)cc2)CC1)c1ccc(F)cc1,LNEPOXFFQSENCJ-UHFFFAOYSA-N,-4.01
"2,4,6,7-tetraoxa-1$l^{3},3$l^{2},5$l^{3}-triplumbabicyclo[3.1.1]heptane",,O1[Pb]O[Pb]2O[Pb]1O2,XMFOQHDPRMAJNU-UHFFFAOYSA-N,-4.008053211
1-(3-Chlorophthalimido)cyclohexanecarboxamide,,NC(=O)C1(CCCCC1)N2C(=O)c3cccc(Cl)c3C2=O,PSAVXKLISNEJJE-UHFFFAOYSA-N,-4.0097
n-(2-nitrophenyl)benzenesulfonamide,,[O-][N+](=O)C1=CC=CC=C1N[S](=O)(=O)C2=CC=CC=C2,QYEQJQLZLZRQEB-UHFFFAOYSA-N,-4.01
Prasterone,,CC12CCC3C(CC=C4CC(O)CCC43C)C1CCC2=O,FMGSKLZLMKYGDP-UHFFFAOYSA-N,-4.01
me (1-(4-bromo)phenylsulfonyl) cyclopentane carb,,COC(=O)C1(CCCC1)[S](=O)(=O)c2ccc(Br)cc2,GTCWZRDSJBFIDT-UHFFFAOYSA-N,-4.0104
"2,6-di-tert-butyl-4-(hydroxymethyl)phenol",,CC(C)(C)c1cc(CO)cc(c1O)C(C)(C)C,HNURKXXMYARGAY-UHFFFAOYSA-N,-4.012782104
fluxofenim,,FC(F)(F)C(=N/OCC1OCCO1)/c2ccc(Cl)cc2,UKSLKNUCVPZQCQ-GZTJUZNOSA-N,-4.0138
cyclohexyl(phenyl)methanone,,O=C(C1CCCCC1)c2ccccc2,BMFYCFSWWDXEPB-UHFFFAOYSA-N,-4.014709735
"2,2,5-trimethyl-5-pentylcyclopentanone",,CCCCCC1(C)CCC(C)(C)C1=O,PUKWIVZFEZFVAT-UHFFFAOYSA-N,-4.016533711
"1,6-dioxacycloheptadecan-7-one",,O=C1CCCCCCCCCCOCCCCO1,MRMOPGVGWFNHIN-UHFFFAOYSA-N,-4.0179592
Citalopram,CAS59729-33-8,CN(C)CCCC1(c2ccc(F)cc2)OCc2cc(C#N)ccc21,WSEQXVZVJXJVFP-UHFFFAOYSA-N,-4.02
4-acetylphenyl  isothiocyanate;  1-acetyl-4-isothiocyanatobenzene,,CC(=O)C1=CC=C(C=C1)N=C=S,KAKXOESNHIUYJT-UHFFFAOYSA-N,-4.02
tetrachloroguaiacol,,Clc1c(Cl)c(Cl)c(Cl)c(O)c1OC,YZZVKLJKDFFSFL-UHFFFAOYSA-N,-4.02
4-(Dipropylsulfamoyl)benzoic acid,,CCCN(CCC)S(=O)(=O)C1=CC=C(C(=O)O)C=C1,DBABZHXKTCFAPX-UHFFFAOYSA-N,-4.02
Testosterone,,CC12CCC3C(CCC4=CC(=O)CCC34C)C2CCC1O,MUMGGOZAMZWBJJ-UHFFFAOYSA-N,-4.02
nortriptiline,,N(CC\C=C1\c2c(CCc3c1cccc3)cccc2)C,PHVGLTMQBUFIQQ-UHFFFAOYSA-N,-4.02
"3-[(2E)-oct-2-en-1-yl]oxolane-2,5-dione; 3-[(2Z)-oct-2-en-1-yl]oxolane-2,5-dione",,CCCCCC/C=C/C1CC(=O)OC1=O,FLISWPFVWWWNNP-BQYQJAHWSA-N,-4.021753515
monalide,,CCCC(C)(C)C(=O)Nc1ccc(Cl)cc1,KXGYBSNVFXBPNO-UHFFFAOYSA-N,-4.0218
sodium (2S)-1-hexadecanoyl-5-oxopyrrolidine-2-carboxylate,,[Na+].CCCCCCCCCCCCCCCC(=O)N1[C@@H](CCC1=O)C([O-])=O,YHJSWPBXHVITHU-FERBBOLQSA-M,-4.022319118
"octa-1,7-diene",,C=CCCCCC=C,XWJBRBSPAODJER-UHFFFAOYSA-N,-4.02327315
dimethoxy(2-methylpropyl)propan-2-ylsilane,,CO[Si](CC(C)C)(OC)C(C)C,XFAOZKNGVLIXLC-UHFFFAOYSA-N,-4.02430091
Flufenamic Acid,CAS530-78-9,O=C(O)c1ccccc1Nc1cccc(C(F)(F)F)c1,LPEPZBJOKDYZAD-UHFFFAOYSA-N,-4.03
2-methyldecanal,,CCCCCCCCC(C)C=O,LBICMZLDYMBIGA-UHFFFAOYSA-N,-4.027084465
butenachlor,,CCc1cccc(CC)c1N(COC\C=C/C)C(=O)CCl,HZDIJTXDRLNTIS-DAXSKMNVSA-N,-4.0287
"benzene-1,4-dicarbonyl dichloride",,ClC(=O)c1ccc(cc1)C(Cl)=O,LXEJRKJRKIFVNY-UHFFFAOYSA-N,-4.028793779
n-(4-chlorophenyl)benzenesulfonamide,,ClC1=CC=C(N[S](=O)(=O)C2=CC=CC=C2)C=C1,ANRCRHLXUCJAKV-UHFFFAOYSA-N,-4.03
ethoxzolamide;  2-sulfamoyl-6-ethoxybenzothiazole; 6-ethoxybenzothiazole-2-sulfonamide,,CCOC1=CC2=C(C=C1)N=C(S2)[S](N)(=O)=O,OUZWUKMCLIBBOG-UHFFFAOYSA-N,-4.03
p-Chloroiodobenzene,,Clc1ccc(I)cc1,GWQSENYKCGJTRI-UHFFFAOYSA-N,-4.03
"1,1,5-trimethylhept-6-en-1-yl acetate",,CC(CCCC(C)(C)OC(C)=O)C=C,BEARMGATPGLSKG-UHFFFAOYSA-N,-4.030164126
"3,3,5-trimethylcyclohexyl prop-2-enoate",,CC1CC(CC(C)(C)C1)OC(=O)C=C,ZMTBGVBNTHTBEC-UHFFFAOYSA-N,-4.030447085
orbencarb,,CCN(CC)C(=O)SCc1ccccc1Cl,LLLFASISUZUJEQ-UHFFFAOYSA-N,-4.031
sulfotepp,,CCO[P](=S)(OCC)O[P](=S)(OCC)OCC,XIUROWKZWPIAIB-UHFFFAOYSA-N,-4.0312
"1-pentanamine, n,n-dipentyl-",,CCCCCN(CCCCC)CCCCC,OOHAUGDGCWURIT-UHFFFAOYSA-N,-4.0326
2-(2-{[2-(oxiran-2-ylmethoxy)phenyl]methyl}phenoxymethyl)oxirane; 2-(2-{[4-(oxiran-2-ylmethoxy)phenyl]methyl}phenoxymethyl)oxirane; 2-(4-{[4-(oxiran-2-ylmethoxy)phenyl]methyl}phenoxymethyl)oxirane,,Oc1ccccc1.ClCC2CO2.C=O,IRJIVOLJTYKLEH-UHFFFAOYSA-N,-4.034756761
Vasopressin,CAS9034-50-8,C1CC(N(C1)C(=O)C2CSSCC(C(=O)NC(C(=O)NC(C(=O)NC(C(=O)NC(C(=O)N2)CC(=O)N)CCC(=O)N)CC3=CC=CC=C3)CC4=CC=C(C=C4)O)N)C(=O)NC(CCCCN)C(=O)NCC(=O)N,BJFIDCADFRDPIO-UHFFFAOYSA-N,-4.04
"methyl 2,4-dihydroxy-3,6-dimethylbenzoate",,COC(=O)c1c(C)cc(O)c(C)c1O,UUQHKWMIDYRWHH-UHFFFAOYSA-N,-4.037430925
pyraclofos,,CCCS[P](=O)(OCC)Oc1cnn(c1)c2ccc(Cl)cc2,QHGVXILFMXYDRS-UHFFFAOYSA-N,-4.0388
azinphos-methyl;  methyl-azinphos,,CO[P](=S)(OC)SCN1N=NC2=CC=CC=C2C1=O,CJJOSEISRRTUQB-UHFFFAOYSA-N,-4.04
"l-365,209 ;  (cyclic  hexapeptide)",,CCC(C)C1NC(=O)C(CC2=CC=CC=C2)NC(=O)C3CCCN3C(=O)C(CC4=CC=CC=C4)N(C)C(=O)C5CCC=NN5C(=O)C6CCC=NN6C1=O,IFHSSGUGRIXWQU-UHFFFAOYSA-N,-4.04
fenitrothion,,COP(=S)(OC)Oc1ccc(N(=O)=O)c(C)c1,ZNOLGFHPUIJIMJ-UHFFFAOYSA-N,-4.04
"6-sulfanylidene-7,9-dihydro-3H-purine-2,8-dione",,O=C1NC(=S)C2=C(N1)NC(=O)N2,SXHQUGJSTGOXMD-UHFFFAOYSA-N,-4.04
"1,5-dimethyl-1-vinylhex-4-en-1-yl formate",,CC(C)=CCCC(C)(OC=O)C=C,JZOCDHMHLGUPFI-UHFFFAOYSA-N,-4.040590426
6-[(2-methylprop-2-enoyl)oxy]hexyl 2-methylprop-2-enoate,,CC(=C)C(=O)OCCCCCCOC(=O)C(C)=C,SAPGBCWOQLHKKZ-UHFFFAOYSA-N,-4.043662925
terephthalic acid,,OC(=O)c1ccc(cc1)C(O)=O,KKEYFWRCBNTPAC-UHFFFAOYSA-N,-4.0444
prochloraz,,CCCN(CCOc1c(Cl)cc(Cl)cc1Cl)C(=O)n2ccnc2,TVLSRXXIMLFWEO-UHFFFAOYSA-N,-4.0445
"N,N-dimethyldecan-1-amine",,CCCCCCCCCCN(C)C,YWWNNLPSZSEZNZ-UHFFFAOYSA-N,-4.045287835
2-ethylhexyl 2-{[({2-[(2-ethylhexyl)oxy]-2-oxoethyl}sulfanyl)dimethylstannyl]sulfanyl}acetate,,CCCCC(CC)COC(=O)CS[Sn](C)(C)SCC(=O)OCC(CC)CCCC,YAHBZWSDRFSFOO-UHFFFAOYSA-L,-4.045663238
"2,2,3,3,4,4,5,5-octafluoropentyl 2-methylprop-2-enoate",,CC(=C)C(=O)OCC(F)(F)C(F)(F)C(F)(F)C(F)F,ZNJXRXXJPIFFAO-UHFFFAOYSA-N,-4.045967349
Testolactone,CAS968-93-4,C[C@]12CC[C@H]3[C@@H](CCC4=CC(=O)C=C[C@@]43C)[C@@H]1CCC(=O)O2,BPEWUONYVDABNZ-DZBHQSCQSA-N,-4.05
4-iodophenyl  isothiocyanate;  4-isothiocyanatoiodobenzene,,IC1=CC=C(C=C1)N=C=S,SNLGBRZZFRSXHA-UHFFFAOYSA-N,-4.05
cyprodinil;  4-cyclopropyl-6-methyl-2-phenylaminopyrimidine,,CC1=NC(=NC(=C1)C2CC2)NC3=CC=CC=C3,HAORKNGNJCEJBX-UHFFFAOYSA-N,-4.05
flurochloridone,,FC(F)(F)C1=CC=CC(=C1)N2CC(CCl)C(Cl)C2=O,OQZCSNDVOWYALR-UHFFFAOYSA-N,-4.05
paclobutrazol,,CC(C)(C)C(O)C(CC1=CC=C(Cl)C=C1)[N]2C=NC=N2,RMOGWMIKYWRTKW-UHFFFAOYSA-N,-4.05
1-(benzoyloxymethyl)allopurinol,,O=C1NC=NC2=C1C=N[N]2COC(=O)C3=CC=CC=C3,NWZNKSOQRRBBJE-UHFFFAOYSA-N,-4.05
4-ethoxycarbonylphenyl isothiocyanate;  4-isothiocyanatobenzoic acid ethyl ester,,CCOC(=O)C1=CC=C(C=C1)N=C=S,MLOJHUCMCKBDLV-UHFFFAOYSA-N,-4.05