Name,ID,SMILES,inchi,LogS
5-fluorouracil-1-methyl  butyrate;  1-butanoyloxymethyl-5-fluorouracil,,CCCC(=O)OCN1C=C(F)C(=O)NC1=O,HNKFVQSWWYMANO-UHFFFAOYSA-N,-1.31
1-[(2-carboxy-5-oxopyrrolidin-1-yl)methyl]-5-oxopyrrolidine-2-carboxylic acid,,O=C(O)C1CCC(=O)N1CN1C(=O)CCC1C(=O)O,XAYYGTJLXVXLMB-UHFFFAOYSA-N,-1.31
Dilevalol,CAS75659-07-3,C[C@H](CCc1ccccc1)NC[C@H](O)c1ccc(O)c(C(N)=O)c1,SGUAFYQXFOLMHL-ACJLOTCBSA-N,-1.31
Labetalol,CAS36894-69-6,CC(CCc1ccccc1)NCC(O)c1ccc(O)c(C(N)=O)c1,SGUAFYQXFOLMHL-UHFFFAOYSA-N,-1.31
methyl salicylate,,COC(=O)c1ccccc1O,OSWPMRLSEDHDFF-UHFFFAOYSA-N,-1.313
"acetamide, n,n'-(phenylmethylene)bis-",,CC(=O)NC(NC(C)=O)c1ccccc1,JFUUKHUKGAQKIW-UHFFFAOYSA-N,-1.3144
"1,1-difluoroethane",,CC(F)F,NPNPZTNLOVBDOC-UHFFFAOYSA-N,-1.314722844
"1,2-dimethoxybenzene",,COc1ccccc1OC,ABDKAPXRBAPSQN-UHFFFAOYSA-N,-1.314975067
2-amino-4-sulfobenzoic acid,,Nc1cc(ccc1C(O)=O)[S](O)(=O)=O,GRGSHONWRKRWGP-UHFFFAOYSA-N,-1.315674521
1-bromo-2-chloroethane,,ClCCBr,IBYHHJPAARCAIE-UHFFFAOYSA-N,-1.3177
2-nitro-5-chlorobenzoic acid,,OC(=O)c1cc(Cl)ccc1[N+]([O-])=O,ZKUYSJHXBFFGPU-UHFFFAOYSA-N,-1.319
di(n-propyl) ether,,CCCOCCC,POLCUAVZOMRGSN-UHFFFAOYSA-N,-1.3192
"1,2-ethylene dibromide",,Br\C=C/Br,UWTUEMKLYAGTNQ-UPHRSURJSA-N,-1.3195
"1,2-dibromoethylene",,BrC=CBr,UWTUEMKLYAGTNQ-UHFFFAOYSA-N,-1.32
"(1Z,2E)-N,N'-Dihydroxy-3,6-dimethyl-1,2-cyclohexanediimine",,CC1CCC(C)C(=NO)C1=NO,WXZGEDBTCQOLCM-UHFFFAOYSA-N,-1.32
Beraprost,CAS88430-50-6,CC#CCC(C)[C@H](O)/C=C/[C@@H]1[C@H]2c3cccc(CCCC(=O)O)c3O[C@H]2C[C@H]1O,CTPOHARTNNSRSR-APJZLKAGSA-N,-1.32
Guanabenz,CAS5051-62-7,N=C(N)N/N=C/c1c(Cl)cccc1Cl,WDZVGELJXXEGPV-YIXHJXPBSA-N,-1.32
"carbamothioic acid, s-[2-oxo-2-(phenylamino)ethy",,NC(=O)SCC(=O)Nc1ccccc1,CEINNGQDMFZTJK-UHFFFAOYSA-N,-1.3228
methyldopa,,C[C@](N)(Cc1ccc(O)c(O)c1)C(O)=O,CJCSPKMFHVPWAR-JTQLQIEISA-N,-1.3247
Methyldopa,CAS555-30-6,CC(N)(Cc1ccc(O)c(O)c1)C(=O)O,CJCSPKMFHVPWAR-UHFFFAOYSA-N,-1.32
quinoline,,c1ccc2ncccc2c1,SMWDFEZZVXVKRB-UHFFFAOYSA-N,-1.325093551
ethyl methacrylate,,CCOC(=O)C(C)=C,SUPCQIBBMFXVTL-UHFFFAOYSA-N,-1.3251
5-methyl-2-hexanone,,CC(C)CCC(C)=O,FFWSICBKRCICMR-UHFFFAOYSA-N,-1.3252
aspidospermine,,CC[C@@]12CCCN3CC[C@@]4([C@@H](CC1)N(C(C)=O)c5c(OC)cccc45)[C@@H]23,ARQOGCYMPUOVHK-ZHHKINOHSA-N,-1.3269
"2-methylpentane-1,5-diamine",,CC(CN)CCCN,JZUHIOJYCPIVLQ-UHFFFAOYSA-N,-1.327248701
"2-pyrrolidinecarboxamide, 5-oxo-n-phenyl-",,O=C1CCC(N1)C(=O)Nc2ccccc2,DLHWPLFJAJCANU-UHFFFAOYSA-N,-1.3278
"dl-methionine, n,n-bis(2-cyanoethyl)-",,CSCCC(N(CCC#N)CCC#N)C(O)=O,JXPCJFWAMGPAQN-UHFFFAOYSA-N,-1.3279
5-indanol,,Oc1ccc2CCCc2c1,PEHSSTUGJUBZBI-UHFFFAOYSA-N,-1.3285
sodium 5-[[4-acetamido-2-(trifluoromethyl)phenyl]azo]-6-amino-4-hydroxynaphthalene-2-sulphonate,,[Na+].CC(=O)Nc1ccc(NNC2=C3C(=O)C=C(C=C3C=CC2=N)[S]([O-])(=O)=O)c(c1)C(F)(F)F,OESZMLMGVFCVEX-UHFFFAOYSA-M,-1.328818198
"1,3,3-trimethyl-2-[(1E)-[2-methyl-2-(4-methylphenyl)hydrazin-1-ylidene]methyl]-3H-indol-1-ium chloride",,[Cl-].CN(N=CC1=[N+](C)c2ccccc2C1(C)C)c3ccc(C)cc3,XNBDPEPVMIIATO-UHFFFAOYSA-M,-1.329218805
diethyl glutarate,,CCOC(=O)CCCC(=O)OCC,OUWSNHWQZPEFEX-UHFFFAOYSA-N,-1.3297
"2-sulfamoyl-5-(4-nitrobenzenesulfonamido)-1,3,4-thiadiazole",,N[S](=O)(=O)C1=NN=C(N[S](=O)(=O)C2=CC=C(C=C2)[N+]([O-])=O)S1,UZKSIVGPWQRGOU-UHFFFAOYSA-N,-1.33
acetanilide,,O=C(Nc(cccc1)c1)C,FZERHIULMFGESH-UHFFFAOYSA-N,-1.33
4-[3-[(butan-2-ylamino)methyl]phenyl]sulfonylthiophene-2-sulfonamide,,CCC(C)NCC1=CC=CC(S(=O)(=O)C2=CSC(S(N)(=O)=O)=C2)=C1,ZBMVGQKSAIYMRW-UHFFFAOYSA-N,-1.33
"5-[(2-methylpropylamino)methyl]thieno[3,2-d]furan-2-sulfonamide",,CC(C)CNCC1=CC2=C(OC(S(N)(=O)=O)=C2)S1,BAIISSWGEDKHNE-UHFFFAOYSA-N,-1.33
"5-[(pyridin-2-ylmethylamino)methyl]thieno[3,2-d]furan-2-sulfonamide",,NS(=O)(=O)C1=CC2=C(O1)SC(CNCC1=CC=CC=N1)=C2,ZJNVFBLZPCRQOR-UHFFFAOYSA-N,-1.33
"l-leucine, n-acetyl-",,CC(C)C[C@H](NC(C)=O)C(O)=O,WXNXCEHXYPACJF-ZETCQYMHSA-N,-1.3301
"d-leucine, n-acetyl-",,CC(C)C[C@@H](NC(C)=O)C(O)=O,WXNXCEHXYPACJF-SSDOTTSWSA-N,-1.3301
Fluvoxamine,CAS54739-18-3,COCCCC/C(=N\OCCN)c1ccc(C(F)(F)F)cc1,CJOFXWAVKWHTFT-XSFVSMFZSA-N,-1.33
2-chlorovinyl diethyl phosphate,,CCO[P](=O)(OCC)O\C=C\Cl,DKMDOBOUUAGJNY-AATRIKPKSA-N,-1.3316
"(5-ethyl-1,3-dioxan-5-yl)methyl prop-2-enoate",,CCC1(COCOC1)COC(=O)C=C,STGXUBIZGYMIRM-UHFFFAOYSA-N,-1.333054875
1-monobutyrin,,CCCC(=O)OCC(O)CO,RIEABXYBQSLTFR-UHFFFAOYSA-N,-1.335
"2,4-dimethylaniline",,Cc1ccc(N)c(C)c1,CZZZABOKJQXEBO-UHFFFAOYSA-N,-1.335253673
"propan-2-yl 2,2,2-trifluoroacetate",,CC(C)OC(=O)C(F)(F)F,ASAXRKSDVDALDT-UHFFFAOYSA-N,-1.336078753
acetylene,,C#C,HSFWRNGVRCDJHI-UHFFFAOYSA-N,-1.336426377
Theophylline,CAS58-55-9,Cn1c(=O)c2nc[nH]c2n(C)c1=O,ZFXYFBGIUFBOJW-UHFFFAOYSA-N,-1.34
propyl isopropyl ether,,CCCOC(C)C,JIEJJGMNDWIGBJ-UHFFFAOYSA-N,-1.3373
cyclohexylmercapto-acetic acid,,OC(=O)CSC1CCCCC1,FBBVJXMXGVHARA-UHFFFAOYSA-N,-1.3381
"1,3-benzenedicarboxylic acid, 4-nitro-",,OC(=O)c1ccc(c(c1)C(O)=O)[N+]([O-])=O,OCJFXVHDIVAONP-UHFFFAOYSA-N,-1.3391
"phenol, 4-(2-aminoethyl)-2-nitro-",,NCCc1ccc(O)c(c1)[N+]([O-])=O,IUCYCHQMRZWPGT-UHFFFAOYSA-N,-1.3399
phthalaldehyde,,O=CC1=CC=CC=C1C=O,ZWLUXSQADUDCSB-UHFFFAOYSA-N,-1.34
Sulfanilamide,,Nc1ccc(cc1)S(N)(=O)=O,FDDDEECHVMSUSB-UHFFFAOYSA-N,-1.34
"1,2-bis(oxiran-2-ylmethyl) cyclohex-4-ene-1,2-dicarboxylate",,O=C(OCC1CO1)C2CC=CCC2C(=O)OCC3CO3,KTPIWUHKYIJBCR-UHFFFAOYSA-N,-1.34010886
"3,4-dihydroxybenzaldehyde",,Oc1ccc(C=O)cc1O,IBGBGRVKPALMCQ-UHFFFAOYSA-N,-1.3402
"disodium (6Z)-4-amino-3-[4-[[4-(2,4-diaminophenyl)diazenylphenyl]carbamoyl]phenyl]diazenyl-5-oxo-6-(phenylhydrazinylidene)naphthalene-2,7-disulfonate",,[Na+].[Na+].Nc1ccc(N=Nc2ccc(NC(=O)c3ccc(cc3)N=Nc4c(N)c5C(=O)C(=N/Nc6ccccc6)/C(=Cc5cc4[S]([O-])(=O)=O)[S]([O-])(=O)=O)cc2)c(N)c1,GTPLMWARUUYSDH-OUXZIXCQSA-L,-1.340682714
m-methylbenzenesulfonamide,,Cc1cccc(c1)[S](N)(=O)=O,NVZINPVISUVPHW-UHFFFAOYSA-N,-1.3409
"2,4(1h,3h)-pteridinedione, 1,3,6,7-tetramethyl-",,CN1C(=O)N(C)c2nc(C)c(C)nc2C1=O,RIUBVVOTTNDDIR-UHFFFAOYSA-N,-1.3429
diethyl sulfate,,CCO[S](=O)(=O)OCC,DENRZWYUOJLTMF-UHFFFAOYSA-N,-1.342949719
"tryptophan, 5-hydroxy-",,NC(Cc1c[nH]c2ccc(O)cc12)C(O)=O,LDCYZAJDBXYCGN-UHFFFAOYSA-N,-1.343
dichlorvos,,CO[P](=O)(OC)OC=C(Cl)Cl,OEBRKCOSUFCWJD-UHFFFAOYSA-N,-1.344
barium bis(dihydrogenorthophosphate),,[Ba++].[Ba++].[Ba++].[O-][P]([O-])([O-])=O.[O-][P]([O-])([O-])=O,WAKZZMMCDILMEF-UHFFFAOYSA-H,-1.345611894
"b,b,b-trichloro-t-butanol",,CC(C)(O)C(Cl)(Cl)Cl,OSASVXMJTNOKOY-UHFFFAOYSA-N,-1.346
bis(2-chloroethoxy)methane,,ClCCOCOCCCl,NLXGURFLBLRZRO-UHFFFAOYSA-N,-1.3461
5-quinoxalinol,,Oc1cccc2nccnc12,ZUQDDQFXSNXEOD-UHFFFAOYSA-N,-1.3468
aldicarb sulfone,,CNC(=O)O\N=C\C(C)(C)[S](C)(=O)=O,YRRKLBAKDXSTNC-WEVVVXLNSA-N,-1.3469
"5-methyl-[1,2,4]triazolo[1,5-a]pyrimidin-7-ol",,CC1=CC(=O)N2NC=NC2=N1,INVVMIXYILXINW-UHFFFAOYSA-N,-1.347195531
fluoroethane,,CCF,UHCBBWUQDAVSMS-UHFFFAOYSA-N,-1.3477
"4-piperidinol, 1-[(benzoyloxy)acetyl]-",,OC1CCN(CC1)C(=O)COC(=O)c2ccccc2,YVWZWRFAFZRJGU-UHFFFAOYSA-N,-1.3486
2-[benzyl(tert-butyl)amino]-1-[4-hydroxy-3-(hydroxymethyl)phenyl]ethan-1-one hydrochloride,,[H+].[Cl-].CC(C)(C)N(CC(=O)c1ccc(O)c(CO)c1)Cc2ccccc2,QXNITHCPVLQQEN-UHFFFAOYSA-N,-1.348776549
ethylene glycol dinitrate,,[O-][N+](=O)OCCO[N+]([O-])=O,UQXKXGWGFRWILX-UHFFFAOYSA-N,-1.3495
2-nitrobenzoic acid,,OC(=O)C1=C(C=CC=C1)[N+]([O-])=O,SLAMLWHELXOEJZ-UHFFFAOYSA-N,-1.35
"4-hydroxy-7-oxo-4,5,6,7-tetrahydro-2-sulfamoylthieno[2,3-b]thiopyran",,N[S](=O)(=O)C1=CC2=C(S1)[S](=O)CCC2O,DWEPFAMAQPVFBH-UHFFFAOYSA-N,-1.35
"5-acetyl-6-methylpyridine-3,4-dicarboxylic acid",,CC(=O)C1=C(C(=O)O)C(C(=O)O)=CN=C1C,PASDDGVAXYKJAW-UHFFFAOYSA-N,-1.35
"N-hydroxy-1,3,3~{a},4,5,6-hexahydrobenzo[de]isoquinoline-2-carboximidamide",,NC(=NO)N1CC2=CC=CC3=C2C(CCC3)C1,JPENUURSSUNMFN-UHFFFAOYSA-N,-1.35
cimetidine,PubChemCID2756,CC1=C(N=CN1)CSCCNC(=NC)NC#N,AQIXAKUUQRKLND-UHFFFAOYSA-N,-1.35
oxygen(-2) anion; vanadium; pentahydroxide; pentaphosphate,,[OH-].[OH-].[OH-].[OH-].[OH-].[O--].[O--].[O--].[O--].[O--].[V].[V].[V].[V].[V].[V].[O-][P]([O-])([O-])=O.[O-][P]([O-])([O-])=O.[O-][P]([O-])([O-])=O.[O-][P]([O-])([O-])=O.[O-][P]([O-])([O-])=O,DZHUTCDIQDURCC-UHFFFAOYSA-A,-1.350363781
"glycine, n-[n-(n-carbamoylglycyl)glycyl]-",,NC(=O)NCC(=O)NCC(=O)NCC(O)=O,GKOORVATHBVNBA-UHFFFAOYSA-N,-1.3505
"1,2-benzenediol, 4-(1-propenyl)-",,CC=Cc1ccc(O)c(O)c1,MDXYNRAMDATLBT-UHFFFAOYSA-N,-1.3505
1-nitrobutane,,CCCC[N+]([O-])=O,NALZTFARIYUCBY-UHFFFAOYSA-N,-1.3506
4-aminobenzoic acid,,Nc1ccc(cc1)C(O)=O,ALYNCZNDIQEVRV-UHFFFAOYSA-N,-1.3511
"1-butanol, 2-ethyl-, acetate",,CCC(CC)COC(C)=O,HQLKZWRSOHTERR-UHFFFAOYSA-N,-1.3528
3-chloropropylene,,ClCC=C,OSDWBNJEKMUWAV-UHFFFAOYSA-N,-1.3562
2-chloroaniline,,Nc1ccccc1Cl,AKCRQHGQIJBRMN-UHFFFAOYSA-N,-1.357574146
"acetamide, n-(4-fluoro-2-methylphenyl)-",,CC(=O)Nc1ccc(F)cc1C,RJKWSTDTEPBWBJ-UHFFFAOYSA-N,-1.3593
"2-propenoic acid, 2,3,3-tribromo-",,OC(=O)C(Br)=C(Br)Br,UKFXMSBXHCEXIK-UHFFFAOYSA-N,-1.3593
o-ethylphenol,,CCc1ccccc1O,IXQGCWUGDFDQMF-UHFFFAOYSA-N,-1.3594
"ethene, chloro-",,ClC=C,BZHJMEDXRYGGRV-UHFFFAOYSA-N,-1.36
"3,4-Dideoxy-2,5-di-S-ethyl-2,5-dithiohexaric acid",,CCSC(CCC(SCC)C(=O)O)C(=O)O,BCUWMWRGIOYNAU-UHFFFAOYSA-N,-1.36
Methyl pentanoate,,CCCC(=O)OCC,OBNCKNCVKJNDBV-UHFFFAOYSA-N,-1.36
"2-propanol, 1,3-dichloro-, carbamate",,NC(=O)OC(CCl)CCl,JMNCUXPHXKHBPY-UHFFFAOYSA-N,-1.3605
methyl valerate,,CCCCC(=O)OC,HNBDRPTVWVGKBR-UHFFFAOYSA-N,-1.3606
enalapril,,CCOC(=O)[C@H](CCc1ccccc1)N[C@@H](C)C(=O)N2CCC[C@H]2C(O)=O,GBXSMTUPTTWBMN-XIRDDKMYSA-N,-1.3609
palladium(2+) ion dinitrate,,[Pd++].[O-][N+]([O-])=O.[O-][N+]([O-])=O,GPNDARIEYHPYAY-UHFFFAOYSA-N,-1.36253525
2-(4-methyl-5-oxo-4-propan-2-yl-1H-imidazol-2-yl)pyridine-3-carboxylic acid,,CC(C)C1(C)N=C(NC1=O)c2ncccc2C(O)=O,CLQMBPJKHLGMQK-UHFFFAOYSA-N,-1.364029386
"1,3-dihydro-2-benzofuran-1,3-dione",,O=C1OC(=O)c2ccccc12,LGRFSURHDFAFJT-UHFFFAOYSA-N,-1.364424933
"2-propanol, 1,3-bis(3-methylbutoxy)-",,CC(C)CCOCC(O)COCCC(C)C,ARRCKRNGGJHASO-UHFFFAOYSA-N,-1.3662
3-aminobenzoic acid,,Nc1cccc(c1)C(O)=O,XFDUHJPVQKIXHO-UHFFFAOYSA-N,-1.3663
"propanamide, 2-oxo-n-phenyl-",,CC(=O)C(=O)Nc1ccccc1,VOKLUGVCKPXDJE-UHFFFAOYSA-N,-1.3676
potassium tetrafluoroboranuide,,[K+].F[B-](F)(F)F,AKEBROIVCDHVSD-UHFFFAOYSA-N,-1.367638869
"4h-1,3,5-dithiazine, dihydro-2,4,6-trimethyl-,",,CC1NC(C)SC(C)S1,FBMVFHKKLDGLJA-UHFFFAOYSA-N,-1.3679
"2-benzoyloxy-(n-ethyl,n-2-hydroxyethyl)acetamide;  n-ethyl-n-(2-hydroxyethyl)-2-(benzoyloxy)acetamide",,CCN(CCO)C(=O)COC(=O)C1=CC=CC=C1,IIZIPXWXNPFUOU-UHFFFAOYSA-N,-1.37
"2-sulfamoyl-5-pentafluorobenzoylamido-1,3,4-thiadiazole",,N[S](=O)(=O)C1=NN=C(NC(=O)C2=C(F)C(=C(F)C(=C2F)F)F)S1,FQQZIMNHENDFJL-UHFFFAOYSA-N,-1.37
"2,4-dimethyl-3H-1,5-benzodiazepine",,CC1=NC2=C(C=CC=C2)N=C(C)C1,KSFDHSSNYJNHAN-UHFFFAOYSA-N,-1.37
"2(1h)-pteridinone, 1-methyl-",,CN1C(=O)N=Cc2nccnc12,LTDGAKSGAQHSFE-UHFFFAOYSA-N,-1.3713
"hexanamide, 2-ethylidene-",,CCCCC(=CC)C(N)=O,CBBQHYFBEMUJII-UHFFFAOYSA-N,-1.3717
"acetamide, 2-(benzoyloxy)-n,n-dimethyl-",,CN(C)C(=O)COC(=O)c1ccccc1,WKIMLEWQZUKSJM-UHFFFAOYSA-N,-1.372
3-chloroaniline,,Nc1cccc(Cl)c1,PNPCRKVUWYDDST-UHFFFAOYSA-N,-1.373368413
phenyl acetate,,CC(=O)Oc1ccccc1,IPBVNPXQWQGGJP-UHFFFAOYSA-N,-1.373595162
5-methyl-2-hexanol,,CC(C)CCC(C)O,ZDVJGWXFXGJSIU-UHFFFAOYSA-N,-1.375
"propanoic acid, 2-hydroxy-, 2-butoxy-1-methyl-2-",,CCCCOC(=O)C(C)OC(=O)C(C)O,QRCKUXOGGLKXGH-UHFFFAOYSA-N,-1.3752
"benzaldehyde, 4-hydroxy-3-methoxy-2-methyl-",,COc1c(C)c(C=O)ccc1O,NHXMRQITQSBVLJ-UHFFFAOYSA-N,-1.3755
pyridine-4-carboxylic acid,,OC(=O)c1ccncc1,TWBYWOBDOCUKOW-UHFFFAOYSA-N,-1.375967099
disodium 6-hydroxy-5-[(E)-2-(4-sulfonatophenyl)diazen-1-yl]naphthalene-2-sulfonate,,[Na+].[Na+].[O-][S](=O)(=O)c1ccc(N\N=C2\C(=O)C=Cc3cc(ccc23)[S]([O-])(=O)=O)cc1,TXVRKNUZLYFDTJ-DDVLFWKVSA-L,-1.376746915
"1h-purine-1-acetic acid, 2,3,6,7-tetrahydro-3,7-",,Cn1cnc2N(C)C(=O)N(CC([O-])=O)C(=O)c12,YCTSCXLOPJCPDH-UHFFFAOYSA-M,-1.3769
"3-hydroxy-4-oxo-4h-pyran-2,6-dicarboxylic acid",,OC(O)=C1OC(=CC(=O)C1=O)C(O)=O,SELRUPTWVICDPZ-UHFFFAOYSA-N,-1.377
2-methylpentanal,,CCCC(C)C=O,FTZILAQGHINQQR-UHFFFAOYSA-N,-1.377449362
"2,6-diamino-1,4-dihydropyrimidin-4-one",,NC1=CC(=O)N=C(N)N1,SWELIMKTDYHAOY-UHFFFAOYSA-N,-1.378146596
3-phenylpropanol,,OCCCc1ccccc1,VAJVDSVGBWFCLW-UHFFFAOYSA-N,-1.3798
metronidazole  phosphate,,CC1=NC=C([N]1CCO[P](O)(O)=O)[N+]([O-])=O,GFFOAZOYBIIJHI-UHFFFAOYSA-N,-1.38
4-methylsulfonylbenzenecarboximidamide,,CS(=O)(=O)C1=CC=C(C(=N)N)C=C1,ANPBNAUKOUYEGJ-UHFFFAOYSA-N,-1.38
2-(ethylsulfanylcarbothioylamino)butanedioic acid,,CCSC(=S)NC(CC(=O)O)C(=O)O,KKUMBCQWVRPGMH-UHFFFAOYSA-N,-1.38
"3,4-Dimethylphenol",,Cc1ccc(O)cc1C,YCOXTKKNXUZSKD-UHFFFAOYSA-N,-1.38
3-pyridinecarbothioic acid,,OC(=S)c1cccnc1,OWDHSOUPMJJTFN-UHFFFAOYSA-N,-1.3801
"sodium 4-[(dichloro-1,3,5-triazin-2-yl)amino]benzene-1-sulfonate",,[Na+].[O-][S](=O)(=O)c1ccc(Nc2nc(Cl)nc(Cl)n2)cc1,BAINTIMFWTXLNC-UHFFFAOYSA-M,-1.38103092
hexan-1-ol,,CCCCCCO,ZSIAUFGUXNUGDI-UHFFFAOYSA-N,-1.382910122
"l-aspartic acid, n-[(ethylthio)thioxomethyl]-",,CCSC(=S)N[C@@H](CC(O)=O)C(O)=O,KKUMBCQWVRPGMH-BYPYZUCNSA-N,-1.3863
Dexrazoxane,CAS24584-09-6,C[C@@H](CN1CC(=O)NC(=O)C1)N1CC(=O)NC(=O)C1,BMKDZUISNHGIBY-ZETCQYMHSA-N,-1.39
"1,4-dimethyl cyclohexane-1,4-dicarboxylate",,COC(=O)C1CCC(CC1)C(=O)OC,LNGAGQAGYITKCW-UHFFFAOYSA-N,-1.387194666
"3,5-dimethylphenol",,Cc1cc(C)cc(O)c1,TUAMRELNJMMDMT-UHFFFAOYSA-N,-1.387983905
"3,6-dichloropicolinic acid",,OC(=O)c1nc(Cl)ccc1Cl,HUBANNPOLNYSAD-UHFFFAOYSA-N,-1.3884
"1h-purin-8-amine, n,n-dimethyl-",,CN(C)c1[nH]c2cncnc2n1,WNLBOWJFJNZYPN-UHFFFAOYSA-N,-1.3885
2-fluorobenzoic  acid,,OC(=O)C1=C(F)C=CC=C1,NSTREUWFTAOOKS-UHFFFAOYSA-N,-1.39
"1-(4-methoxyphenyl)-2-phenylethane-1,2-diol",,COC1=CC=C(C(O)C(O)C2=CC=CC=C2)C=C1,JDBJGKZPEUFETH-UHFFFAOYSA-N,-1.39
di(phenyl)-piperidin-4-ylmethanol,,OC(C1=CC=CC=C1)(C1=CC=CC=C1)C1CCNCC1,ZMISODWVFHHWNR-UHFFFAOYSA-N,-1.39
Basic red 1:1,,[Cl-].CCNc1cc2[o+]c3cc(NCC)c(C)cc3c(c2cc1C)c4ccccc4C(=O)OC,WDTZNHRKHNKDOU-UHFFFAOYSA-M,-1.390984611
4-heptanol,,CCCC(O)CCC,YVBCULSIZWMTFY-UHFFFAOYSA-N,-1.3931
"N,2,3-trimethyl-2-(propan-2-yl)butanamide",,CNC(=O)C(C)(C(C)C)C(C)C,RWAXQWRDVUOOGG-UHFFFAOYSA-N,-1.394867706
"2,4(3h,5h)-pyrimidinedione, 6-amino-5,5-diethyl-",,CCC1(CC)C(=NC(=O)NC1=O)N,SSNMPSGFZBQHKA-UHFFFAOYSA-N,-1.3967
"2-propanol, 1,3-diiodo-",,OC(CI)CI,DNKPFCQEGBJJTE-UHFFFAOYSA-N,-1.3971
"8-[(4-amino-3-nitrophenyl)diazenyl]-7-hydroxy-N,N,N-trimethylnaphthalen-2-aminium chloride",,[Cl-].C[N+](C)(C)c1ccc2C=CC(=O)C(=N/Nc3ccc(N)c(c3)[N+]([O-])=O)\c2c1,CMPPYVDBIJWGCB-UHFFFAOYSA-N,-1.39724242
"hexanedioic acid, 3-butyl-",,CCCCC(CCC(O)=O)CC(O)=O,SYBIZQPCZZHMNO-UHFFFAOYSA-N,-1.3974
dihydrogen tetrachloropalladiumdiuide,,[Cl-].[Cl-].[Cl-].[Cl-].[Pd++].[H+].[H+],RPYSFYBAYJBKCR-UHFFFAOYSA-L,-1.398370615
4-ethylphenol,,CCC1=CC=C(O)C=C1,HXDOZKJGKXYMEW-UHFFFAOYSA-N,-1.4
7-acetyltheophylline,,CN1C(=O)N(C)C2=C([N](C=N2)C(C)=O)C1=O,RCDRLZYAKDYXMM-UHFFFAOYSA-N,-1.4
"4-amino-~{N}-[1,3-dihydroxy-2-(hydroxymethyl)propan-2-yl]benzenesulfonamide",,NC1=CC=C(S(=O)(=O)NC(CO)(CO)CO)C=C1,ANADDXJINIYFJZ-UHFFFAOYSA-N,-1.4
2-chloroacetanilide,,CC(=O)Nc1ccccc1Cl,KNVQTRVKSOEHPU-UHFFFAOYSA-N,-1.4001
"3,5-dimethylaniline",,Cc1cc(C)cc(N)c1,MKARNSWMMBGSHX-UHFFFAOYSA-N,-1.402200462
2-chloropropane,,CC(C)Cl,ULYZAYCEDJDHCC-UHFFFAOYSA-N,-1.4037
Chlorambucil,CAS305-03-3,O=C(O)CCCc1ccc(N(CCCl)CCCl)cc1,JCKYGMPEJWAADB-UHFFFAOYSA-N,-1.4
2-(methylamino)-1-phenylpropan-1-ol,,CN[C@@H](C)[C@@H](O)c1ccccc1,KWGRBVOPPLSCSI-WCBMZHEXSA-N,-1.405191317
"2-benzofuran-1,3-dione; 2-(2-hydroxyethoxy)ethanol",,OCCOCCO.O=C1OC(=O)c2ccccc12,ZLBFMYQIKPWYBC-UHFFFAOYSA-N,-1.405240463
3-phenylpropanoic acid,,OC(=O)CCc1ccccc1,XMIIGOLPHOKFCH-UHFFFAOYSA-N,-1.405751413
Pyromellitic dianhydride,,O=C1OC(=O)c2cc3C(=O)OC(=O)c3cc12,ANSXAPJVJOKRDJ-UHFFFAOYSA-N,-1.406221724
Cefadroxil,CAS66592-87-8,CC1=C(C(=O)O)N2C(=O)[C@@H](NC(=O)[C@H](N)c3ccc(O)cc3)[C@H]2SC1.O,NBFNMSULHIODTC-CYJZLJNKSA-N,-1.41
tryptazan,,NC(Cc1[nH]nc2ccccc12)C(O)=O,IFEKQNAXDMZERW-UHFFFAOYSA-N,-1.4091
sulfacetamide;  n1-(acetyl)sulfanilamide,,CC(=O)N[S](=O)(=O)C1=CC=C(N)C=C1,SKIVFJLNDNKQPD-UHFFFAOYSA-N,-1.41
"2,4-dihydroxybenzoic  acid;  beta-resorcylic  acid",,OC(=O)C1=CC=C(O)C=C1O,UIAFKZKHHVMJGS-UHFFFAOYSA-N,-1.41
p-hydroxybenzoic_acid,,O=C(O)c(ccc(O)c1)c1,FJKROLUGYXJWQN-UHFFFAOYSA-N,-1.41
2-acetamido-3-phenylpropanoic acid,,CC(=O)NC(CC1=CC=CC=C1)C(=O)O,CBQJSKKFNMDLON-UHFFFAOYSA-N,-1.41
2-[(2-amino-2-phenylacetyl)amino]acetic acid,,NC(C(=O)NCC(=O)O)C1=CC=CC=C1,LJXOMNKURQBXLP-UHFFFAOYSA-N,-1.41
"6-aminocyclohexane-1,2,3,4,5-pentol",,NC1C(O)C(O)C(O)C(O)C1O,JXAOTICXQLILTC-UHFFFAOYSA-N,-1.41
3-Methylbutyl 6-[hydroxy(4-quinolinyl)methyl]quinuclidine-3-carboxylate,,CC(C)CCOC(=O)C1CN2CCC1CC2C(O)C1=CC=NC2=C1C=CC=C2,ZJNARMAUZGNBEM-UHFFFAOYSA-N,-1.41
2-(1-hydroxy-1-oxopropan-2-yl)sulfanylcarbothioylsulfanylpropanoic acid,,CC(SC(=S)SC(C)C(=O)O)C(=O)O,WJSJKNCWBHCYME-UHFFFAOYSA-N,-1.41
Tropisetron,CAS89565-68-4,CN1[C@H]2CC[C@@H]1C[C@H](OC(=O)c1c[nH]c3ccccc13)C2,ZNRGQMMCGHDTEI-ITGUQSILSA-N,-1.41
"hydrazinecarboxamide, 2-cyclohexylidene-",,NC(=O)NN=C1CCCCC1,KZDDDHJBINUIKQ-UHFFFAOYSA-N,-1.4127
methyl 3-methylbut-2-enoate,,COC(=O)C=C(C)C,FZIBCCGGICGWBP-UHFFFAOYSA-N,-1.414000411
dibutyl methylphosphonate,,CCCCO[P](C)(=O)OCCCC,NPNBLTJGRBYCJB-UHFFFAOYSA-N,-1.4155
6-chlorohexan-2-one,,CC(=O)CCCCCl,CMDIDTNMHQUVPE-UHFFFAOYSA-N,-1.415573876
"1,1,1,2,2-pentafluoroethane",,FC(F)C(F)(F)F,GTLACDSXYULKMZ-UHFFFAOYSA-N,-1.416495791
"4,6-dichloropyrimidine",,Clc1cc(Cl)ncn1,XJPZKYIHCLDXST-UHFFFAOYSA-N,-1.417253114
(2H)chloroform,,ClC(Cl)(Cl)[2H],HEDRZPFGACZZDS-MICDWDOJSA-N,-1.417811305
2-[2-(2-{2-[(2-methylprop-2-enoyl)oxy]ethoxy}ethoxy)ethoxy]ethyl 2-methylprop-2-enoate,,CC(=C)C(=O)OCCOCCOCCOCCOC(=O)C(C)=C,LTHJXDSHSVNJKG-UHFFFAOYSA-N,-1.41863926
"ethane, 1,1-bis(methylsulfonyl)-",,CC([S](C)(=O)=O)[S](C)(=O)=O,LLGSMJDXJRKMFD-UHFFFAOYSA-N,-1.4188
"benzaldehyde, 3,4-dimethoxy-",,COc1ccc(C=O)cc1OC,WJUFSDZVCOTFON-UHFFFAOYSA-N,-1.4199
"5,5-diethylbarbituric  acid;  veronal;  barbital;  barbitone",,CCC1(CC)C(=O)NC(=O)NC1=O,FTOAOBMCPZCFFF-UHFFFAOYSA-N,-1.42
hyenanchin,,CC(=C)C1(O)[C@H]2OC(=O)[C@@H]1[C@]3(O)[C@H]4O[C@H]4[C@]5(CO5)[C@]3(C)[C@@H]2O,DWCJGLPGZULWPZ-GEETXFABSA-N,-1.42
d-Camphoric_Acid,,O=C(O)C(C(C(C(=O)O)C1)(C)C)(C1)C,LSPHULWDVZXLIL-UHFFFAOYSA-N,-1.42
Rolitetracycline,,c12C(=O)C3=C(O)C4(O)C(=O)C=C(O)C(N(C)C)C4CC3C(O)(C)c1cccc2,QMSHUERTGDUVNN-UHFFFAOYSA-N,-1.42
4-[4-hydroxy-3-[(methyl-(2-methylpropyl)amino)methyl]benzoyl]thiophene-2-sulfonamide,,CC(C)CN(C)CC1=C(O)C=CC(C(=O)C2=CSC(S(N)(=O)=O)=C2)=C1,ICZBWKGJZRHLFV-UHFFFAOYSA-N,-1.42
rolitetracycline,PubChemCID54682938,CC1(C2CC3C(C(=O)C(=C(C3(C(=O)C2=C(C4=C1C=CC=C4O)O)O)O)C(=O)NCN5CCCC5)N(C)C)O,IKQRPFTXKQQLJF-UHFFFAOYSA-N,-1.42
"4-methyl-2,6-dichlorophenol",,Cc1cc(Cl)c(O)c(Cl)c1,YXEOEPYIBGTLML-UHFFFAOYSA-N,-1.4202
"2,2-bipyridine",,c1ccc(nc1)c2ccccn2,ROFVEXUMMXZLPA-UHFFFAOYSA-N,-1.4206
camphoric acid,,CC1(C)[C@H](CC[C@@]1(C)C([O-])=O)C([O-])=O,LSPHULWDVZXLIL-LDWIPMOCSA-L,-1.4207
Carboplatin,CAS41575-94-4,N.N.O=C1O[Pt]OC(=O)C12CCC2,OLESAACUTLOWQZ-UHFFFAOYSA-L,-1.42
2-[(3-aminophenyl)sulfonyl]ethyl hydrogen sulfate,,Nc1cccc(c1)[S](=O)(=O)CCO[S](O)(=O)=O,BCLOBWIFURSERL-UHFFFAOYSA-N,-1.423880849
"2,3-dimethylphenol",,Cc1cccc(O)c1C,QWBBPBRQALCEIZ-UHFFFAOYSA-N,-1.424196078
3-heptanone,,CCCCC(=O)CC,NGAZZOYFWWSOGK-UHFFFAOYSA-N,-1.4242
"acetic acid, 2,2',2''-[methylidynetris(thio)]tri",,OC(=O)CSC(SCC(O)=O)SCC(O)=O,ZBNBQISDCFIEQC-UHFFFAOYSA-N,-1.4243
"benzene-1,2-dicarboxylic acid",,OC(=O)c1ccccc1C(O)=O,XNGIFLGASWRNHJ-UHFFFAOYSA-N,-1.424573276
"1,2-cycloheptanedione, dioxime",,ONC1=C(CCCCC1)N=O,MYDALHRLYFBVMU-UHFFFAOYSA-N,-1.4249
dibutyl phosphite,,CCCCO[P+](=O)OCCCC,OSPSWZSRKYCQPF-UHFFFAOYSA-N,-1.4249
"phosphonothioic  dihydrazide, p-phenyl-",,NN[P](=S)(NN)c1ccccc1,HDCICIWMRHHDMV-UHFFFAOYSA-N,-1.425
"disodium 5-methyl-2-({4-[(4-methyl-2-sulfonatophenyl)amino]-9,10-dioxo-9,10-dihydroanthracen-1-yl}amino)benzene-1-sulfonate",,[Na+].[Na+].Cc1ccc(Nc2ccc(Nc3ccc(C)cc3[S]([O-])(=O)=O)c4C(=O)c5ccccc5C(=O)c24)c(c1)[S]([O-])(=O)=O,FPAYXBWMYIMERV-UHFFFAOYSA-L,-1.427031257
"pentanamide, n-(aminocarbonyl)-2-bromo-",,CCCC(Br)C(=O)NC(N)=O,APOQXKXBZDMITN-UHFFFAOYSA-N,-1.4278